 DBCSR| CPU Multiplication driver                                           BLAS
 DBCSR| Multrec recursion limit                                              512
 DBCSR| Multiplication stack size                                           1000
 DBCSR| Maximum elements for images                                    UNLIMITED
 DBCSR| Multiplicative factor virtual images                                   1
 DBCSR| Use multiplication densification                                       T
 DBCSR| Multiplication size stacks                                             3
 DBCSR| Use memory pool for CPU allocation                                     F
 DBCSR| Number of 3D layers                                               SINGLE
 DBCSR| Use MPI memory allocation                                              F
 DBCSR| Use RMA algorithm                                                      F
 DBCSR| Use Communication thread                                               T
 DBCSR| Communication thread load                                             75
 DBCSR| MPI: My node id                                                        0
 DBCSR| MPI: Number of nodes                                                4096
 DBCSR| OMP: Current number of threads                                         4
 DBCSR| OMP: Max number of threads                                             4
 DBCSR| Split modifier for TAS multiplication algorithm                  1.0E+00


  **** **** ******  **  PROGRAM STARTED AT               2022-03-23 14:10:22.372
 ***** ** ***  *** **   PROGRAM STARTED ON                             nid001128
 **    ****   ******    PROGRAM STARTED BY                               aturner
 ***** **    ** ** **   PROGRAM PROCESS ID                                 45192
  **** **  *******  **  PROGRAM STARTED IN /mnt/lustre/a2fs-work2/work/z19/z19/a
                                           turner/benchmark/ofi-vs-ucx/CP2K/LiH_
                                           HFX/calc/OFI

 CP2K| version string:                                          CP2K version 8.2
 CP2K| source code revision number:                                  git:310b7ab
 CP2K| cp2kflags: omp libint fftw3 libxc elpa parallel mpi3 scalapack           
 CP2K| is freely available from                            https://www.cp2k.org/
 CP2K| Program compiled at                          Wed 23 Mar 12:19:29 GMT 2022
 CP2K| Program compiled on                                                  ln04
 CP2K| Program compiled for                                              ARCHER2
 CP2K| Data directory path                   /work/y07/shared/cp2k/cp2k-8.1/data
 CP2K| Input file name                                      input_bulk_HFX_3.inp

 GLOBAL| Force Environment number                                              1
 GLOBAL| Basis set file name                                         ./BASIS_OPT
 GLOBAL| Potential file name                                         ./POTENTIAL
 GLOBAL| MM Potential file name                                     MM_POTENTIAL
 GLOBAL| Coordinate file name                                      __STD_INPUT__
 GLOBAL| Method name                                                        CP2K
 GLOBAL| Project name                                                 LiH_bulk_3
 GLOBAL| Run type                                                         ENERGY
 GLOBAL| FFT library                                                       FFTW3
 GLOBAL| Diagonalization library                                            ELPA
 GLOBAL| Minimum number of eigenvectors for ELPA usage                        16
 GLOBAL| Orthonormality check for eigenvectors                          DISABLED
 GLOBAL| Matrix multiplication library                                    SCALAP
 GLOBAL| All-to-all communication in single precision                          F
 GLOBAL| FFTs using library dependent lengths                                  F
 GLOBAL| Grid backend                                                       AUTO
 GLOBAL| Global print level                                               MEDIUM
 GLOBAL| MPI I/O enabled                                                       T
 GLOBAL| Total number of message passing processes                          4096
 GLOBAL| Number of threads for this process                                    4
 GLOBAL| This output is from process                                           0
 GLOBAL| CPU model name                          AMD EPYC 7742 64-Core Processor
 GLOBAL| CPUID                                                              1002

 MEMORY| system memory details [Kb]
 MEMORY|                        rank 0           min           max       average
 MEMORY| MemTotal            263528088     263528084     263528088     263528087
 MEMORY| MemFree             245710356     244851516     248844884     246812669
 MEMORY| Buffers                 28696         20216         34760         29380
 MEMORY| Cached                1551632        587604       2986204       1583384
 MEMORY| Slab                  1771764       1480652       1820928       1704177
 MEMORY| SReclaimable           203472         79924        223320        170599
 MEMORY| MemLikelyFree       247494156     247494156     249548368     248596033


 *** Fundamental physical constants (SI units) ***

 *** Literature: B. J. Mohr and B. N. Taylor,
 ***             CODATA recommended values of the fundamental physical
 ***             constants: 2006, Web Version 5.1
 ***             http://physics.nist.gov/constants

 Speed of light in vacuum [m/s]                             2.99792458000000E+08
 Magnetic constant or permeability of vacuum [N/A**2]       1.25663706143592E-06
 Electric constant or permittivity of vacuum [F/m]          8.85418781762039E-12
 Planck constant (h) [J*s]                                  6.62606896000000E-34
 Planck constant (h-bar) [J*s]                              1.05457162825177E-34
 Elementary charge [C]                                      1.60217648700000E-19
 Electron mass [kg]                                         9.10938215000000E-31
 Electron g factor [ ]                                     -2.00231930436220E+00
 Proton mass [kg]                                           1.67262163700000E-27
 Fine-structure constant                                    7.29735253760000E-03
 Rydberg constant [1/m]                                     1.09737315685270E+07
 Avogadro constant [1/mol]                                  6.02214179000000E+23
 Boltzmann constant [J/K]                                   1.38065040000000E-23
 Atomic mass unit [kg]                                      1.66053878200000E-27
 Bohr radius [m]                                            5.29177208590000E-11

 *** Conversion factors ***

 [u] -> [a.u.]                                              1.82288848426455E+03
 [Angstrom] -> [Bohr] = [a.u.]                              1.88972613288564E+00
 [a.u.] = [Bohr] -> [Angstrom]                              5.29177208590000E-01
 [a.u.] -> [s]                                              2.41888432650478E-17
 [a.u.] -> [fs]                                             2.41888432650478E-02
 [a.u.] -> [J]                                              4.35974393937059E-18
 [a.u.] -> [N]                                              8.23872205491840E-08
 [a.u.] -> [K]                                              3.15774647902944E+05
 [a.u.] -> [kJ/mol]                                         2.62549961709828E+03
 [a.u.] -> [kcal/mol]                                       6.27509468713739E+02
 [a.u.] -> [Pa]                                             2.94210107994716E+13
 [a.u.] -> [bar]                                            2.94210107994716E+08
 [a.u.] -> [atm]                                            2.90362800883016E+08
 [a.u.] -> [eV]                                             2.72113838565563E+01
 [a.u.] -> [Hz]                                             6.57968392072181E+15
 [a.u.] -> [1/cm] (wave numbers)                            2.19474631370540E+05
 [a.u./Bohr**2] -> [1/cm]                                   5.14048714338585E+03
 

 CELL_TOP| Volume [angstrom^3]:                                      1839.166147
 CELL_TOP| Vector a [angstrom    12.252     0.000     0.000   |a| =    12.252000
 CELL_TOP| Vector b [angstrom     0.000    12.252     0.000   |b| =    12.252000
 CELL_TOP| Vector c [angstrom     0.000     0.000    12.252   |c| =    12.252000
 CELL_TOP| Angle (b,c), alpha [degree]:                                90.000000
 CELL_TOP| Angle (a,c), beta  [degree]:                                90.000000
 CELL_TOP| Angle (a,b), gamma [degree]:                                90.000000
 CELL_TOP| Numerically orthorhombic:                                         YES

 GENERATE|  Preliminary Number of Bonds generated:                             0
 GENERATE|  Achieved consistency in connectivity generation.

 CELL| Volume [angstrom^3]:                                          1839.166147
 CELL| Vector a [angstrom]:      12.252     0.000     0.000   |a| =    12.252000
 CELL| Vector b [angstrom]:       0.000    12.252     0.000   |b| =    12.252000
 CELL| Vector c [angstrom]:       0.000     0.000    12.252   |c| =    12.252000
 CELL| Angle (b,c), alpha [degree]:                                    90.000000
 CELL| Angle (a,c), beta  [degree]:                                    90.000000
 CELL| Angle (a,b), gamma [degree]:                                    90.000000
 CELL| Numerically orthorhombic:                                             YES

 CELL_REF| Volume [angstrom^3]:                                      1839.166147
 CELL_REF| Vector a [angstrom    12.252     0.000     0.000   |a| =    12.252000
 CELL_REF| Vector b [angstrom     0.000    12.252     0.000   |b| =    12.252000
 CELL_REF| Vector c [angstrom     0.000     0.000    12.252   |c| =    12.252000
 CELL_REF| Angle (b,c), alpha [degree]:                                90.000000
 CELL_REF| Angle (a,c), beta  [degree]:                                90.000000
 CELL_REF| Angle (a,b), gamma [degree]:                                90.000000
 CELL_REF| Numerically orthorhombic:                                         YES

 *******************************************************************************
 *******************************************************************************
 **                                                                           **
 **     #####                         ##              ##                      **
 **    ##   ##            ##          ##              ##                      **
 **   ##     ##                       ##            ######                    **
 **   ##     ##  ##   ##  ##   #####  ##  ##   ####   ##    #####    #####    **
 **   ##     ##  ##   ##  ##  ##      ## ##   ##      ##   ##   ##  ##   ##   **
 **   ##  ## ##  ##   ##  ##  ##      ####     ###    ##   ######   ######    **
 **    ##  ###   ##   ##  ##  ##      ## ##      ##   ##   ##       ##        **
 **     #######   #####   ##   #####  ##  ##  ####    ##    #####   ##        **
 **           ##                                                    ##        **
 **                                                                           **
 **                                                ... make the atoms dance   **
 **                                                                           **
 **            Copyright (C) by CP2K developers group (2000-2021)             **
 **                      J. Chem. Phys. 152, 194103 (2020)                    **
 **                                                                           **
 *******************************************************************************

 DFT| Spin restricted Kohn-Sham (RKS) calculation                            RKS
 DFT| Multiplicity                                                             1
 DFT| Number of spin states                                                    1
 DFT| Charge                                                                   0
 DFT| Self-interaction correction (SIC)                                       NO
 DFT| Cutoffs: density                                              1.000000E-10
 DFT|          gradient                                             1.000000E-10
 DFT|          tau                                                  1.000000E-10
 DFT|          cutoff_smoothing_range                               0.000000E+00
 DFT| XC density smoothing                                                  NONE
 DFT| XC derivatives                                                          PW
 FUNCTIONAL| NO EXCHANGE-CORRELATION FUNCTIONAL USED.

 QS| Method:                                                                GAPW
 QS| Density plane wave grid type                        NON-SPHERICAL FULLSPACE
 QS| Number of grid levels:                                                    4
 QS| Density cutoff [a.u.]:                                                150.0
 QS| Multi grid cutoff [a.u.]: 1) grid level                               150.0
 QS|                           2) grid level                                50.0
 QS|                           3) grid level                                16.7
 QS|                           4) grid level                                 5.6
 QS| Grid level progression factor:                                          3.0
 QS| Relative density cutoff [a.u.]:                                        25.0
 QS| Interaction thresholds: eps_pgf_orb:                                1.0E-16
 QS|                         eps_filter_matrix:                          0.0E+00
 QS|                         eps_core_charge:                            1.0E-14
 QS|                         eps_rho_gspace:                             1.0E-12
 QS|                         eps_rho_rspace:                             1.0E-12
 QS|                         eps_gvg_rspace:                             1.0E-06
 QS|                         eps_ppl:                                    1.0E-02
 QS|                         eps_ppnl:                                   1.0E-08
 QS| GAPW|                   eps_fit:                                    1.0E-04
 QS| GAPW|                   eps_iso:                                    1.0E-12
 QS| GAPW|                   eps_svd:                                    1.0E-08
 QS| GAPW|                   eps_cpc:                                    1.0E-12
 QS| GAPW|   atom-r-grid: quadrature:                                     GC_LOG
 QS| GAPW|      atom-s-grid:  max l :                                          6
 QS| GAPW|      max_l_rho0 :                                                   2


 ATOMIC KIND INFORMATION

  1. Atomic kind: Li                                    Number of atoms:     108

     Orbital Basis Set                                                      OPT2

       Number of orbital shell sets:                                          19
       Number of orbital shells:                                              19
       Number of primitive Cartesian functions:                               22
       Number of Cartesian basis functions:                                   48
       Number of spherical basis functions:                                   43
       Norm type:                                                              2

       Normalised Cartesian orbitals:

                        Set   Shell   Orbital            Exponent    Coefficient

                          1       1    1s             1336.034059     157.497346

                          2       1    1s              444.299817      68.971106

                          3       1    1s              147.797018      30.210600

                          4       1    1s               49.209451      13.241784

                          5       1    1s               16.428957       5.815909

                          6       1    1s                5.529399       2.569914

                          7       1    1s                1.905282       1.155792

                          8       1    1s                0.700259       0.545574

                          9       1    1s                0.299587       0.288604

                         10       1    1s                0.166363       0.185653

                         11       1    1px               1.570911       2.506857
                         11       1    1py               1.570911       2.506857
                         11       1    1pz               1.570911       2.506857

                         12       1    1px               0.748759       0.992813
                         12       1    1py               0.748759       0.992813
                         12       1    1pz               0.748759       0.992813

                         13       1    1px               0.386141       0.433883
                         13       1    1py               0.386141       0.433883
                         13       1    1pz               0.386141       0.433883

                         14       1    1px               0.226205       0.222366
                         14       1    1py               0.226205       0.222366
                         14       1    1pz               0.226205       0.222366

                         15       1    1dx2              0.779208       1.063661
                         15       1    1dxy              0.779208       1.842314
                         15       1    1dxz              0.779208       1.842314
                         15       1    1dy2              0.779208       1.063661
                         15       1    1dyz              0.779208       1.842314
                         15       1    1dz2              0.779208       1.063661

                         16       1    1dx2              0.407899       0.342671
                         16       1    1dxy              0.407899       0.593523
                         16       1    1dxz              0.407899       0.593523
                         16       1    1dy2              0.407899       0.342671
                         16       1    1dyz              0.407899       0.593523
                         16       1    1dz2              0.407899       0.342671

                         17       1    1fx3              0.737063       0.741037
                         17       1    1fx2y             0.737063       1.657009
                         17       1    1fx2z             0.737063       1.657009
                         17       1    1fxy2             0.737063       1.657009
                         17       1    1fxyz             0.737063       2.870024
                         17       1    1fxz2             0.737063       1.657009
                         17       1    1fy3              0.737063       0.741037
                         17       1    1fy2z             0.737063       1.657009
                         17       1    1fyz2             0.737063       1.657009
                         17       1    1fz3              0.737063       0.741037

                         18       1    1s            70681.000000      77.181651
                                                     13594.000000     137.129824
                                                      3100.400000     260.757508

                         19       1    1px              28.500000      10.037838
                                                         6.640000      14.250477
                         19       1    1py              28.500000      10.037838
                                                         6.640000      14.250477
                         19       1    1pz              28.500000      10.037838
                                                         6.640000      14.250477

       Atomic covalent radius [Angstrom]:                                  1.230

       Atomic van der Waals radius [Angstrom]:                             1.820

     The atoms of this atomic kind are PAW atoms (GAPW):
       Hard Gaussian function radius:                                      1.512
       Rho0 radius:                                                        1.512
       Maximum GTO radius used for PAW projector construction:            24.566

     GAPW Soft Basis Set                                               OPT2_soft

       Number of orbital shell sets:                                          19
       Number of orbital shells:                                              19
       Number of primitive Cartesian functions:                               11
       Number of Cartesian basis functions:                                   48
       Number of spherical basis functions:                                   43
       Norm type:                                                              2

       Normalised Cartesian orbitals:

                        Set   Shell   Orbital            Exponent    Coefficient

                          1       1    1s         

                          2       1    1s         

                          3       1    1s         

                          4       1    1s         

                          5       1    1s         

                          6       1    1s         

                          7       1    1s                1.905282       1.155792

                          8       1    1s                0.700259       0.545574

                          9       1    1s                0.299587       0.288604

                         10       1    1s                0.166363       0.185653

                         11       1    1px               1.570911       2.506857
                         11       1    1py               1.570911       2.506857
                         11       1    1pz               1.570911       2.506857

                         12       1    1px               0.748759       0.992813
                         12       1    1py               0.748759       0.992813
                         12       1    1pz               0.748759       0.992813

                         13       1    1px               0.386141       0.433883
                         13       1    1py               0.386141       0.433883
                         13       1    1pz               0.386141       0.433883

                         14       1    1px               0.226205       0.222366
                         14       1    1py               0.226205       0.222366
                         14       1    1pz               0.226205       0.222366

                         15       1    1dx2              0.779208       1.063661
                         15       1    1dxy              0.779208       1.842314
                         15       1    1dxz              0.779208       1.842314
                         15       1    1dy2              0.779208       1.063661
                         15       1    1dyz              0.779208       1.842314
                         15       1    1dz2              0.779208       1.063661

                         16       1    1dx2              0.407899       0.342671
                         16       1    1dxy              0.407899       0.593523
                         16       1    1dxz              0.407899       0.593523
                         16       1    1dy2              0.407899       0.342671
                         16       1    1dyz              0.407899       0.593523
                         16       1    1dz2              0.407899       0.342671

                         17       1    1fx3              0.737063       0.741037
                         17       1    1fx2y             0.737063       1.657009
                         17       1    1fx2z             0.737063       1.657009
                         17       1    1fxy2             0.737063       1.657009
                         17       1    1fxyz             0.737063       2.870024
                         17       1    1fxz2             0.737063       1.657009
                         17       1    1fy3              0.737063       0.741037
                         17       1    1fy2z             0.737063       1.657009
                         17       1    1fyz2             0.737063       1.657009
                         17       1    1fz3              0.737063       0.741037

                         18       1    1s         

                         19       1    1px        
                         19       1    1py        
                         19       1    1pz        

     AE Potential information for                                            ALL

       Description:                                       All-electron potential
                                          Krack, Parrinello, PCCP 2, 2105 (2000)

       Gaussian exponent of the core charge distribution:               3.125000
       Electronic configuration (s p d ...):                           3   0   0

  2. Atomic kind: H                                     Number of atoms:     108

     Orbital Basis Set                                                      OPT2

       Number of orbital shell sets:                                          12
       Number of orbital shells:                                              12
       Number of primitive Cartesian functions:                               14
       Number of Cartesian basis functions:                                   37
       Number of spherical basis functions:                                   32
       Norm type:                                                              2

       Normalised Cartesian orbitals:

                        Set   Shell   Orbital            Exponent    Coefficient

                          1       1    1s               27.463675       8.550255

                          2       1    1s                6.855926       3.019671

                          3       1    1s                1.767997       1.092751

                          4       1    1s                0.511818       0.431268

                          5       1    1s                0.201675       0.214486

                          6       1    1px               2.124086       3.655151
                          6       1    1py               2.124086       3.655151
                          6       1    1pz               2.124086       3.655151

                          7       1    1px               1.073681       1.557881
                          7       1    1py               1.073681       1.557881
                          7       1    1pz               1.073681       1.557881

                          8       1    1px               0.568387       0.703469
                          8       1    1py               0.568387       0.703469
                          8       1    1pz               0.568387       0.703469

                          9       1    1dx2              0.928338       1.445092
                          9       1    1dxy              0.928338       2.502973
                          9       1    1dxz              0.928338       2.502973
                          9       1    1dy2              0.928338       1.445092
                          9       1    1dyz              0.928338       2.502973
                          9       1    1dz2              0.928338       1.445092

                         10       1    1dx2              0.495830       0.482216
                         10       1    1dxy              0.495830       0.835223
                         10       1    1dxz              0.495830       0.835223
                         10       1    1dy2              0.495830       0.482216
                         10       1    1dyz              0.495830       0.835223
                         10       1    1dz2              0.495830       0.482216

                         11       1    1fx3              1.207348       2.249456
                         11       1    1fx2y             1.207348       5.029937
                         11       1    1fx2z             1.207348       5.029937
                         11       1    1fxy2             1.207348       5.029937
                         11       1    1fxyz             1.207348       8.712106
                         11       1    1fxz2             1.207348       5.029937
                         11       1    1fy3              1.207348       2.249456
                         11       1    1fy2z             1.207348       5.029937
                         11       1    1fyz2             1.207348       5.029937
                         11       1    1fz3              1.207348       2.249456

                         12       1    1s             3079.700000       6.291525
                                                       461.520000      11.778577
                                                       105.060000      20.410428

       Atomic covalent radius [Angstrom]:                                  0.320

       Atomic van der Waals radius [Angstrom]:                             1.090

     The atoms of this atomic kind are PAW atoms (GAPW):
       Hard Gaussian function radius:                                      1.200
       Rho0 radius:                                                        1.200
       Maximum GTO radius used for PAW projector construction:            24.566

     GAPW Soft Basis Set                                               OPT2_soft

       Number of orbital shell sets:                                          12
       Number of orbital shells:                                              12
       Number of primitive Cartesian functions:                                9
       Number of Cartesian basis functions:                                   37
       Number of spherical basis functions:                                   32
       Norm type:                                                              2

       Normalised Cartesian orbitals:

                        Set   Shell   Orbital            Exponent    Coefficient

                          1       1    1s         

                          2       1    1s         

                          3       1    1s                1.767997       1.092751

                          4       1    1s                0.511818       0.431268

                          5       1    1s                0.201675       0.214486

                          6       1    1px               2.124086       3.655151
                          6       1    1py               2.124086       3.655151
                          6       1    1pz               2.124086       3.655151

                          7       1    1px               1.073681       1.557881
                          7       1    1py               1.073681       1.557881
                          7       1    1pz               1.073681       1.557881

                          8       1    1px               0.568387       0.703469
                          8       1    1py               0.568387       0.703469
                          8       1    1pz               0.568387       0.703469

                          9       1    1dx2              0.928338       1.445092
                          9       1    1dxy              0.928338       2.502973
                          9       1    1dxz              0.928338       2.502973
                          9       1    1dy2              0.928338       1.445092
                          9       1    1dyz              0.928338       2.502973
                          9       1    1dz2              0.928338       1.445092

                         10       1    1dx2              0.495830       0.482216
                         10       1    1dxy              0.495830       0.835223
                         10       1    1dxz              0.495830       0.835223
                         10       1    1dy2              0.495830       0.482216
                         10       1    1dyz              0.495830       0.835223
                         10       1    1dz2              0.495830       0.482216

                         11       1    1fx3              1.207348       2.249456
                         11       1    1fx2y             1.207348       5.029937
                         11       1    1fx2z             1.207348       5.029937
                         11       1    1fxy2             1.207348       5.029937
                         11       1    1fxyz             1.207348       8.712106
                         11       1    1fxz2             1.207348       5.029937
                         11       1    1fy3              1.207348       2.249456
                         11       1    1fy2z             1.207348       5.029937
                         11       1    1fyz2             1.207348       5.029937
                         11       1    1fz3              1.207348       2.249456

                         12       1    1s         

     AE Potential information for                                            ALL

       Description:                                       All-electron potential
                                          Krack, Parrinello, PCCP 2, 2105 (2000)

       Gaussian exponent of the core charge distribution:              12.500000
       Electronic configuration (s p d ...):                           1   0   0


 MOLECULE KIND INFORMATION


 All atoms are their own molecule, skipping detailed information


 TOTAL NUMBERS AND MAXIMUM NUMBERS

  Total number of            - Atomic kinds:                                   2
                             - Atoms:                                        216
                             - Shell sets:                                  3348
                             - Shells:                                      3348
                             - Primitive Cartesian functions:               3888
                             - Cartesian basis functions:                   9180
                             - Spherical basis functions:                   8100

  Maximum angular momentum of the orbital basis functions:                     3


 MODULE QUICKSTEP:  ATOMIC COORDINATES IN angstrom

  Atom  Kind  Element       X           Y           Z          Z(eff)       Mass

       1     1 Li   3    0.000000    0.000000    0.000000      3.0000       6.9410
       2     1 Li   3    2.042000    2.042000    0.000000      3.0000       6.9410
       3     1 Li   3    2.042000    0.000000    2.042000      3.0000       6.9410
       4     1 Li   3    0.000000    2.042000    2.042000      3.0000       6.9410
       5     2 H    1    0.000000    2.042000    0.000000      1.0000       1.0079
       6     2 H    1    0.000000    0.000000    2.042000      1.0000       1.0079
       7     2 H    1    2.042000    0.000000    0.000000      1.0000       1.0079
       8     2 H    1    2.042000    2.042000    2.042000      1.0000       1.0079
       9     1 Li   3    0.000000    0.000000    4.084000      3.0000       6.9410
      10     1 Li   3    2.042000    2.042000    4.084000      3.0000       6.9410
      11     1 Li   3    2.042000    0.000000    6.126000      3.0000       6.9410
      12     1 Li   3    0.000000    2.042000    6.126000      3.0000       6.9410
      13     2 H    1    0.000000    2.042000    4.084000      1.0000       1.0079
      14     2 H    1    0.000000    0.000000    6.126000      1.0000       1.0079
      15     2 H    1    2.042000    0.000000    4.084000      1.0000       1.0079
      16     2 H    1    2.042000    2.042000    6.126000      1.0000       1.0079
      17     1 Li   3    0.000000    0.000000    8.168000      3.0000       6.9410
      18     1 Li   3    2.042000    2.042000    8.168000      3.0000       6.9410
      19     1 Li   3    2.042000    0.000000   10.210000      3.0000       6.9410
      20     1 Li   3    0.000000    2.042000   10.210000      3.0000       6.9410
      21     2 H    1    0.000000    2.042000    8.168000      1.0000       1.0079
      22     2 H    1    0.000000    0.000000   10.210000      1.0000       1.0079
      23     2 H    1    2.042000    0.000000    8.168000      1.0000       1.0079
      24     2 H    1    2.042000    2.042000   10.210000      1.0000       1.0079
      25     1 Li   3    0.000000    4.084000    0.000000      3.0000       6.9410
      26     1 Li   3    2.042000    6.126000    0.000000      3.0000       6.9410
      27     1 Li   3    2.042000    4.084000    2.042000      3.0000       6.9410
      28     1 Li   3    0.000000    6.126000    2.042000      3.0000       6.9410
      29     2 H    1    0.000000    6.126000    0.000000      1.0000       1.0079
      30     2 H    1    0.000000    4.084000    2.042000      1.0000       1.0079
      31     2 H    1    2.042000    4.084000    0.000000      1.0000       1.0079
      32     2 H    1    2.042000    6.126000    2.042000      1.0000       1.0079
      33     1 Li   3    0.000000    4.084000    4.084000      3.0000       6.9410
      34     1 Li   3    2.042000    6.126000    4.084000      3.0000       6.9410
      35     1 Li   3    2.042000    4.084000    6.126000      3.0000       6.9410
      36     1 Li   3    0.000000    6.126000    6.126000      3.0000       6.9410
      37     2 H    1    0.000000    6.126000    4.084000      1.0000       1.0079
      38     2 H    1    0.000000    4.084000    6.126000      1.0000       1.0079
      39     2 H    1    2.042000    4.084000    4.084000      1.0000       1.0079
      40     2 H    1    2.042000    6.126000    6.126000      1.0000       1.0079
      41     1 Li   3    0.000000    4.084000    8.168000      3.0000       6.9410
      42     1 Li   3    2.042000    6.126000    8.168000      3.0000       6.9410
      43     1 Li   3    2.042000    4.084000   10.210000      3.0000       6.9410
      44     1 Li   3    0.000000    6.126000   10.210000      3.0000       6.9410
      45     2 H    1    0.000000    6.126000    8.168000      1.0000       1.0079
      46     2 H    1    0.000000    4.084000   10.210000      1.0000       1.0079
      47     2 H    1    2.042000    4.084000    8.168000      1.0000       1.0079
      48     2 H    1    2.042000    6.126000   10.210000      1.0000       1.0079
      49     1 Li   3    0.000000    8.168000    0.000000      3.0000       6.9410
      50     1 Li   3    2.042000   10.210000    0.000000      3.0000       6.9410
      51     1 Li   3    2.042000    8.168000    2.042000      3.0000       6.9410
      52     1 Li   3    0.000000   10.210000    2.042000      3.0000       6.9410
      53     2 H    1    0.000000   10.210000    0.000000      1.0000       1.0079
      54     2 H    1    0.000000    8.168000    2.042000      1.0000       1.0079
      55     2 H    1    2.042000    8.168000    0.000000      1.0000       1.0079
      56     2 H    1    2.042000   10.210000    2.042000      1.0000       1.0079
      57     1 Li   3    0.000000    8.168000    4.084000      3.0000       6.9410
      58     1 Li   3    2.042000   10.210000    4.084000      3.0000       6.9410
      59     1 Li   3    2.042000    8.168000    6.126000      3.0000       6.9410
      60     1 Li   3    0.000000   10.210000    6.126000      3.0000       6.9410
      61     2 H    1    0.000000   10.210000    4.084000      1.0000       1.0079
      62     2 H    1    0.000000    8.168000    6.126000      1.0000       1.0079
      63     2 H    1    2.042000    8.168000    4.084000      1.0000       1.0079
      64     2 H    1    2.042000   10.210000    6.126000      1.0000       1.0079
      65     1 Li   3    0.000000    8.168000    8.168000      3.0000       6.9410
      66     1 Li   3    2.042000   10.210000    8.168000      3.0000       6.9410
      67     1 Li   3    2.042000    8.168000   10.210000      3.0000       6.9410
      68     1 Li   3    0.000000   10.210000   10.210000      3.0000       6.9410
      69     2 H    1    0.000000   10.210000    8.168000      1.0000       1.0079
      70     2 H    1    0.000000    8.168000   10.210000      1.0000       1.0079
      71     2 H    1    2.042000    8.168000    8.168000      1.0000       1.0079
      72     2 H    1    2.042000   10.210000   10.210000      1.0000       1.0079
      73     1 Li   3    4.084000    0.000000    0.000000      3.0000       6.9410
      74     1 Li   3    6.126000    2.042000    0.000000      3.0000       6.9410
      75     1 Li   3    6.126000    0.000000    2.042000      3.0000       6.9410
      76     1 Li   3    4.084000    2.042000    2.042000      3.0000       6.9410
      77     2 H    1    4.084000    2.042000    0.000000      1.0000       1.0079
      78     2 H    1    4.084000    0.000000    2.042000      1.0000       1.0079
      79     2 H    1    6.126000    0.000000    0.000000      1.0000       1.0079
      80     2 H    1    6.126000    2.042000    2.042000      1.0000       1.0079
      81     1 Li   3    4.084000    0.000000    4.084000      3.0000       6.9410
      82     1 Li   3    6.126000    2.042000    4.084000      3.0000       6.9410
      83     1 Li   3    6.126000    0.000000    6.126000      3.0000       6.9410
      84     1 Li   3    4.084000    2.042000    6.126000      3.0000       6.9410
      85     2 H    1    4.084000    2.042000    4.084000      1.0000       1.0079
      86     2 H    1    4.084000    0.000000    6.126000      1.0000       1.0079
      87     2 H    1    6.126000    0.000000    4.084000      1.0000       1.0079
      88     2 H    1    6.126000    2.042000    6.126000      1.0000       1.0079
      89     1 Li   3    4.084000    0.000000    8.168000      3.0000       6.9410
      90     1 Li   3    6.126000    2.042000    8.168000      3.0000       6.9410
      91     1 Li   3    6.126000    0.000000   10.210000      3.0000       6.9410
      92     1 Li   3    4.084000    2.042000   10.210000      3.0000       6.9410
      93     2 H    1    4.084000    2.042000    8.168000      1.0000       1.0079
      94     2 H    1    4.084000    0.000000   10.210000      1.0000       1.0079
      95     2 H    1    6.126000    0.000000    8.168000      1.0000       1.0079
      96     2 H    1    6.126000    2.042000   10.210000      1.0000       1.0079
      97     1 Li   3    4.084000    4.084000    0.000000      3.0000       6.9410
      98     1 Li   3    6.126000    6.126000    0.000000      3.0000       6.9410
      99     1 Li   3    6.126000    4.084000    2.042000      3.0000       6.9410
     100     1 Li   3    4.084000    6.126000    2.042000      3.0000       6.9410
     101     2 H    1    4.084000    6.126000    0.000000      1.0000       1.0079
     102     2 H    1    4.084000    4.084000    2.042000      1.0000       1.0079
     103     2 H    1    6.126000    4.084000    0.000000      1.0000       1.0079
     104     2 H    1    6.126000    6.126000    2.042000      1.0000       1.0079
     105     1 Li   3    4.084000    4.084000    4.084000      3.0000       6.9410
     106     1 Li   3    6.126000    6.126000    4.084000      3.0000       6.9410
     107     1 Li   3    6.126000    4.084000    6.126000      3.0000       6.9410
     108     1 Li   3    4.084000    6.126000    6.126000      3.0000       6.9410
     109     2 H    1    4.084000    6.126000    4.084000      1.0000       1.0079
     110     2 H    1    4.084000    4.084000    6.126000      1.0000       1.0079
     111     2 H    1    6.126000    4.084000    4.084000      1.0000       1.0079
     112     2 H    1    6.126000    6.126000    6.126000      1.0000       1.0079
     113     1 Li   3    4.084000    4.084000    8.168000      3.0000       6.9410
     114     1 Li   3    6.126000    6.126000    8.168000      3.0000       6.9410
     115     1 Li   3    6.126000    4.084000   10.210000      3.0000       6.9410
     116     1 Li   3    4.084000    6.126000   10.210000      3.0000       6.9410
     117     2 H    1    4.084000    6.126000    8.168000      1.0000       1.0079
     118     2 H    1    4.084000    4.084000   10.210000      1.0000       1.0079
     119     2 H    1    6.126000    4.084000    8.168000      1.0000       1.0079
     120     2 H    1    6.126000    6.126000   10.210000      1.0000       1.0079
     121     1 Li   3    4.084000    8.168000    0.000000      3.0000       6.9410
     122     1 Li   3    6.126000   10.210000    0.000000      3.0000       6.9410
     123     1 Li   3    6.126000    8.168000    2.042000      3.0000       6.9410
     124     1 Li   3    4.084000   10.210000    2.042000      3.0000       6.9410
     125     2 H    1    4.084000   10.210000    0.000000      1.0000       1.0079
     126     2 H    1    4.084000    8.168000    2.042000      1.0000       1.0079
     127     2 H    1    6.126000    8.168000    0.000000      1.0000       1.0079
     128     2 H    1    6.126000   10.210000    2.042000      1.0000       1.0079
     129     1 Li   3    4.084000    8.168000    4.084000      3.0000       6.9410
     130     1 Li   3    6.126000   10.210000    4.084000      3.0000       6.9410
     131     1 Li   3    6.126000    8.168000    6.126000      3.0000       6.9410
     132     1 Li   3    4.084000   10.210000    6.126000      3.0000       6.9410
     133     2 H    1    4.084000   10.210000    4.084000      1.0000       1.0079
     134     2 H    1    4.084000    8.168000    6.126000      1.0000       1.0079
     135     2 H    1    6.126000    8.168000    4.084000      1.0000       1.0079
     136     2 H    1    6.126000   10.210000    6.126000      1.0000       1.0079
     137     1 Li   3    4.084000    8.168000    8.168000      3.0000       6.9410
     138     1 Li   3    6.126000   10.210000    8.168000      3.0000       6.9410
     139     1 Li   3    6.126000    8.168000   10.210000      3.0000       6.9410
     140     1 Li   3    4.084000   10.210000   10.210000      3.0000       6.9410
     141     2 H    1    4.084000   10.210000    8.168000      1.0000       1.0079
     142     2 H    1    4.084000    8.168000   10.210000      1.0000       1.0079
     143     2 H    1    6.126000    8.168000    8.168000      1.0000       1.0079
     144     2 H    1    6.126000   10.210000   10.210000      1.0000       1.0079
     145     1 Li   3    8.168000    0.000000    0.000000      3.0000       6.9410
     146     1 Li   3   10.210000    2.042000    0.000000      3.0000       6.9410
     147     1 Li   3   10.210000    0.000000    2.042000      3.0000       6.9410
     148     1 Li   3    8.168000    2.042000    2.042000      3.0000       6.9410
     149     2 H    1    8.168000    2.042000    0.000000      1.0000       1.0079
     150     2 H    1    8.168000    0.000000    2.042000      1.0000       1.0079
     151     2 H    1   10.210000    0.000000    0.000000      1.0000       1.0079
     152     2 H    1   10.210000    2.042000    2.042000      1.0000       1.0079
     153     1 Li   3    8.168000    0.000000    4.084000      3.0000       6.9410
     154     1 Li   3   10.210000    2.042000    4.084000      3.0000       6.9410
     155     1 Li   3   10.210000    0.000000    6.126000      3.0000       6.9410
     156     1 Li   3    8.168000    2.042000    6.126000      3.0000       6.9410
     157     2 H    1    8.168000    2.042000    4.084000      1.0000       1.0079
     158     2 H    1    8.168000    0.000000    6.126000      1.0000       1.0079
     159     2 H    1   10.210000    0.000000    4.084000      1.0000       1.0079
     160     2 H    1   10.210000    2.042000    6.126000      1.0000       1.0079
     161     1 Li   3    8.168000    0.000000    8.168000      3.0000       6.9410
     162     1 Li   3   10.210000    2.042000    8.168000      3.0000       6.9410
     163     1 Li   3   10.210000    0.000000   10.210000      3.0000       6.9410
     164     1 Li   3    8.168000    2.042000   10.210000      3.0000       6.9410
     165     2 H    1    8.168000    2.042000    8.168000      1.0000       1.0079
     166     2 H    1    8.168000    0.000000   10.210000      1.0000       1.0079
     167     2 H    1   10.210000    0.000000    8.168000      1.0000       1.0079
     168     2 H    1   10.210000    2.042000   10.210000      1.0000       1.0079
     169     1 Li   3    8.168000    4.084000    0.000000      3.0000       6.9410
     170     1 Li   3   10.210000    6.126000    0.000000      3.0000       6.9410
     171     1 Li   3   10.210000    4.084000    2.042000      3.0000       6.9410
     172     1 Li   3    8.168000    6.126000    2.042000      3.0000       6.9410
     173     2 H    1    8.168000    6.126000    0.000000      1.0000       1.0079
     174     2 H    1    8.168000    4.084000    2.042000      1.0000       1.0079
     175     2 H    1   10.210000    4.084000    0.000000      1.0000       1.0079
     176     2 H    1   10.210000    6.126000    2.042000      1.0000       1.0079
     177     1 Li   3    8.168000    4.084000    4.084000      3.0000       6.9410
     178     1 Li   3   10.210000    6.126000    4.084000      3.0000       6.9410
     179     1 Li   3   10.210000    4.084000    6.126000      3.0000       6.9410
     180     1 Li   3    8.168000    6.126000    6.126000      3.0000       6.9410
     181     2 H    1    8.168000    6.126000    4.084000      1.0000       1.0079
     182     2 H    1    8.168000    4.084000    6.126000      1.0000       1.0079
     183     2 H    1   10.210000    4.084000    4.084000      1.0000       1.0079
     184     2 H    1   10.210000    6.126000    6.126000      1.0000       1.0079
     185     1 Li   3    8.168000    4.084000    8.168000      3.0000       6.9410
     186     1 Li   3   10.210000    6.126000    8.168000      3.0000       6.9410
     187     1 Li   3   10.210000    4.084000   10.210000      3.0000       6.9410
     188     1 Li   3    8.168000    6.126000   10.210000      3.0000       6.9410
     189     2 H    1    8.168000    6.126000    8.168000      1.0000       1.0079
     190     2 H    1    8.168000    4.084000   10.210000      1.0000       1.0079
     191     2 H    1   10.210000    4.084000    8.168000      1.0000       1.0079
     192     2 H    1   10.210000    6.126000   10.210000      1.0000       1.0079
     193     1 Li   3    8.168000    8.168000    0.000000      3.0000       6.9410
     194     1 Li   3   10.210000   10.210000    0.000000      3.0000       6.9410
     195     1 Li   3   10.210000    8.168000    2.042000      3.0000       6.9410
     196     1 Li   3    8.168000   10.210000    2.042000      3.0000       6.9410
     197     2 H    1    8.168000   10.210000    0.000000      1.0000       1.0079
     198     2 H    1    8.168000    8.168000    2.042000      1.0000       1.0079
     199     2 H    1   10.210000    8.168000    0.000000      1.0000       1.0079
     200     2 H    1   10.210000   10.210000    2.042000      1.0000       1.0079
     201     1 Li   3    8.168000    8.168000    4.084000      3.0000       6.9410
     202     1 Li   3   10.210000   10.210000    4.084000      3.0000       6.9410
     203     1 Li   3   10.210000    8.168000    6.126000      3.0000       6.9410
     204     1 Li   3    8.168000   10.210000    6.126000      3.0000       6.9410
     205     2 H    1    8.168000   10.210000    4.084000      1.0000       1.0079
     206     2 H    1    8.168000    8.168000    6.126000      1.0000       1.0079
     207     2 H    1   10.210000    8.168000    4.084000      1.0000       1.0079
     208     2 H    1   10.210000   10.210000    6.126000      1.0000       1.0079
     209     1 Li   3    8.168000    8.168000    8.168000      3.0000       6.9410
     210     1 Li   3   10.210000   10.210000    8.168000      3.0000       6.9410
     211     1 Li   3   10.210000    8.168000   10.210000      3.0000       6.9410
     212     1 Li   3    8.168000   10.210000   10.210000      3.0000       6.9410
     213     2 H    1    8.168000   10.210000    8.168000      1.0000       1.0079
     214     2 H    1    8.168000    8.168000   10.210000      1.0000       1.0079
     215     2 H    1   10.210000    8.168000    8.168000      1.0000       1.0079
     216     2 H    1   10.210000   10.210000   10.210000      1.0000       1.0079




 SCF PARAMETERS         Density guess:                                   RESTART
                        --------------------------------------------------------
                        max_scf:                                              20
                        max_scf_history:                                       0
                        max_diis:                                              4
                        --------------------------------------------------------
                        eps_scf:                                        1.00E-06
                        eps_scf_history:                                0.00E+00
                        eps_diis:                                       1.00E-01
                        eps_eigval:                                     1.00E-05
                        --------------------------------------------------------
                        level_shift [a.u.]:                                 0.00
                        --------------------------------------------------------
                        No outer SCF

 PW_GRID| Information for grid number                                          1
 PW_GRID| Grid distributed over                                  4096 processors
 PW_GRID| Real space group dimensions                                    64   64
 PW_GRID| the grid is blocked:                                               YES
 PW_GRID| Cutoff [a.u.]                                                    150.0
 PW_GRID| spherical cutoff:                                                   NO
 PW_GRID|   Bounds   1            -64      63                Points:         128
 PW_GRID|   Bounds   2            -64      63                Points:         128
 PW_GRID|   Bounds   3            -64      63                Points:         128
 PW_GRID| Volume element (a.u.^3)  0.5918E-02     Volume (a.u.^3)     12411.3085
 PW_GRID| Grid span                                                    FULLSPACE
 PW_GRID|   Distribution                         Average         Max         Min
 PW_GRID|   G-Vectors                              512.0         512         512
 PW_GRID|   G-Rays                                   4.0           4           4
 PW_GRID|   Real Space Points                      512.0         512         512

 PW_GRID| Information for grid number                                          2
 PW_GRID| Number of the reference grid                                         1
 PW_GRID| Grid distributed over                                  4096 processors
 PW_GRID| Real space group dimensions                                    64   64
 PW_GRID| the grid is blocked:                                                NO
 PW_GRID| Cutoff [a.u.]                                                     50.0
 PW_GRID| spherical cutoff:                                                   NO
 PW_GRID|   Bounds   1            -37      37                Points:          75
 PW_GRID|   Bounds   2            -37      37                Points:          75
 PW_GRID|   Bounds   3            -37      37                Points:          75
 PW_GRID| Volume element (a.u.^3)  0.2942E-01     Volume (a.u.^3)     12411.3085
 PW_GRID| Grid span                                                    FULLSPACE
 PW_GRID|   Distribution                         Average         Max         Min
 PW_GRID|   G-Vectors                              103.0         300           0
 PW_GRID|   G-Rays                                   1.4           4           0
 PW_GRID|   Real Space Points                      103.0         300          75

 PW_GRID| Information for grid number                                          3
 PW_GRID| Number of the reference grid                                         1
 PW_GRID| Grid distributed over                                  4096 processors
 PW_GRID| Real space group dimensions                                    64   64
 PW_GRID| the grid is blocked:                                                NO
 PW_GRID| Cutoff [a.u.]                                                     16.7
 PW_GRID| spherical cutoff:                                                   NO
 PW_GRID|   Bounds   1            -22      22                Points:          45
 PW_GRID|   Bounds   2            -22      22                Points:          45
 PW_GRID|   Bounds   3            -22      22                Points:          45
 PW_GRID| Volume element (a.u.^3)  0.1362         Volume (a.u.^3)     12411.3085
 PW_GRID| Grid span                                                    FULLSPACE
 PW_GRID|   Distribution                         Average         Max         Min
 PW_GRID|   G-Vectors                               22.2         180           0
 PW_GRID|   G-Rays                                   0.5           4           0
 PW_GRID|   Real Space Points                       22.2          45           0

 PW_GRID| Information for grid number                                          4
 PW_GRID| Number of the reference grid                                         1
 PW_GRID| Grid distributed over                                  4096 processors
 PW_GRID| Real space group dimensions                                    64   64
 PW_GRID| the grid is blocked:                                                NO
 PW_GRID| Cutoff [a.u.]                                                      5.6
 PW_GRID| spherical cutoff:                                                   NO
 PW_GRID|   Bounds   1            -12      12                Points:          25
 PW_GRID|   Bounds   2            -12      12                Points:          25
 PW_GRID|   Bounds   3            -12      12                Points:          25
 PW_GRID| Volume element (a.u.^3)  0.7943         Volume (a.u.^3)     12411.3085
 PW_GRID| Grid span                                                    FULLSPACE
 PW_GRID|   Distribution                         Average         Max         Min
 PW_GRID|   G-Vectors                                3.8         100           0
 PW_GRID|   G-Rays                                   0.2           4           0
 PW_GRID|   Real Space Points                        3.8          25           0

 POISSON| Solver                                                        PERIODIC
 POISSON| Periodicity                                                        XYZ

 RS_GRID| Information for grid number                                          1
 RS_GRID|   Bounds   1            -64      63                Points:         128
 RS_GRID|   Bounds   2            -64      63                Points:         128
 RS_GRID|   Bounds   3            -64      63                Points:         128
 RS_GRID| Real space distribution over                                 16 groups
 RS_GRID| Real space distribution along direction                              1
 RS_GRID| Border size                                                         25
 RS_GRID| Real space distribution over                                 16 groups
 RS_GRID| Real space distribution along direction                              2
 RS_GRID| Border size                                                         25
 RS_GRID| Real space distribution over                                 16 groups
 RS_GRID| Real space distribution along direction                              3
 RS_GRID| Border size                                                         25
 RS_GRID|   Distribution                         Average         Max         Min
 RS_GRID|   Planes                                  58.0          58          58
 RS_GRID|   Distribution                         Average         Max         Min
 RS_GRID|   Planes                                  58.0          58          58
 RS_GRID|   Distribution                         Average         Max         Min
 RS_GRID|   Planes                                  58.0          58          58

 RS_GRID| Information for grid number                                          2
 RS_GRID|   Bounds   1            -37      37                Points:          75
 RS_GRID|   Bounds   2            -37      37                Points:          75
 RS_GRID|   Bounds   3            -37      37                Points:          75
 RS_GRID| Real space distribution over                                 16 groups
 RS_GRID| Real space distribution along direction                              1
 RS_GRID| Border size                                                         25
 RS_GRID| Real space distribution over                                 16 groups
 RS_GRID| Real space distribution along direction                              2
 RS_GRID| Border size                                                         25
 RS_GRID| Real space distribution over                                 16 groups
 RS_GRID| Real space distribution along direction                              3
 RS_GRID| Border size                                                         25
 RS_GRID|   Distribution                         Average         Max         Min
 RS_GRID|   Planes                                  54.7          55          54
 RS_GRID|   Distribution                         Average         Max         Min
 RS_GRID|   Planes                                  54.7          55          54
 RS_GRID|   Distribution                         Average         Max         Min
 RS_GRID|   Planes                                  54.7          55          54

 RS_GRID| Information for grid number                                          3
 RS_GRID|   Bounds   1            -22      22                Points:          45
 RS_GRID|   Bounds   2            -22      22                Points:          45
 RS_GRID|   Bounds   3            -22      22                Points:          45
 RS_GRID| Real space fully replicated
 RS_GRID| Group size                                                           1

 RS_GRID| Information for grid number                                          4
 RS_GRID|   Bounds   1            -12      12                Points:          25
 RS_GRID|   Bounds   2            -12      12                Points:          25
 RS_GRID|   Bounds   3            -12      12                Points:          25
 RS_GRID| Real space fully replicated
 RS_GRID| Group size                                                           1

  HFX_INFO| Replica ID:                                                        1
  HFX_INFO| FRACTION:                                               1.0000000000
  HFX_INFO| Interaction Potential:                                     TRUNCATED
  HFX_INFO| Cutoff Radius [angstrom]:                               6.0000000000
  HFX_INFO| EPS_SCHWARZ:                                                 1.0E-09
  HFX_INFO| EPS_SCHWARZ_FORCES                                           1.0E-09
  HFX_INFO| EPS_STORAGE_SCALING:                                         1.0E-01
  HFX_INFO| NBINS:                                                            64
  HFX_INFO| BLOCK_SIZE:                                                        1
  HFX_INFO| NUMBER_OF_SHELLS:                                               AUTO
  HFX_INFO| Number of periodic shells considered:                             -1
  HFX_INFO| Number of periodic cells considered:                              27


 Number of electrons:                                                        432
 Number of occupied orbitals:                                                216
 Number of molecular orbitals:                                               216

 Number of orbital functions:                                               8100
 Number of independent orbital functions:                                   8100

 Extrapolation method: initial_guess


 SCF WAVEFUNCTION OPTIMIZATION

  ----------------------------------- OT ---------------------------------------
  Minimizer      : CG                  : conjugate gradient
  Preconditioner : FULL_ALL            : diagonalization, state selective
  Precond_solver : DEFAULT
  Line search    : 2PNT                : 2 energies, one gradient
  stepsize       :    0.15000000                  energy_gap     :    0.08000000
  eps_taylor     :   0.10000E-15                  max_taylor     :             4
  ----------------------------------- OT ---------------------------------------

  Step     Update method      Time    Convergence         Total energy    Change
  ------------------------------------------------------------------------------

  HFX_MEM_INFO| Est. max. program size before HFX [MiB]:                     396
  HFX_MEM_INFO| Number of cart. primitive ERI's calculated:       18728082069295
  HFX_MEM_INFO| Number of sph. ERI's calculated:                   4747425803902
  HFX_MEM_INFO| Number of sph. ERI's stored in-core:               3559832631419
  HFX_MEM_INFO| Number of sph. ERI's stored on disk:                           0
  HFX_MEM_INFO| Number of sph. ERI's calculated on the fly:                    0
  HFX_MEM_INFO| Total memory consumption ERI's RAM [MiB]:                3844824
  HFX_MEM_INFO| Whereof max-vals [MiB]:                                    58262
  HFX_MEM_INFO| Total compression factor ERI's RAM:                         7.06
  HFX_MEM_INFO| Total memory consumption ERI's disk [MiB]:                     0
  HFX_MEM_INFO| Total compression factor ERI's disk:                        0.00
  HFX_MEM_INFO| Size of density/Fock matrix [MiB]:                           502
  HFX_MEM_INFO| Size of buffers [MiB]:                                        66
  HFX_MEM_INFO| Number of periodic image cells considered:                    27
  HFX_MEM_INFO| Est. max. program size after HFX  [MiB]:                    2216

     1 OT CG       0.15E+00  254.0     0.03493226      -870.3838135131 -8.70E+02
     2 OT LS       0.15E-02    4.9                   201876.2888658935
     3 OT CG       0.15E-02    5.1   130.66769072      1566.7082520420  2.44E+03
     4 OT LS       0.74E-03    5.1                   634626.8071165039
     5 OT CG       0.74E-03    5.2   994.41275260    610367.8956084610  6.09E+05
     6 OT LS       0.37E-03    5.1                   643672.5730495080
     7 OT CG       0.37E-03    5.2  1084.07725446    622427.7900519633  1.21E+04
     8 OT LS       0.18E-03    5.1                   638922.7343016767
     9 OT CG       0.18E-03    5.3  1058.67022106    652234.4035706852  2.98E+04
    10 OT LS       0.92E-04    5.1                   591647.8063176816
    11 OT CG       0.92E-04    5.4  1037.82949659    603759.6495513766 -4.85E+04
    12 OT LS       0.46E-04    5.1                   628920.9040017158
    13 OT CG       0.46E-04    5.3  1035.25201284    604032.5687276931  2.73E+02
    14 OT LS       0.23E-04    5.1                   608925.5386791121
    15 OT CG       0.23E-04    5.3   926.90040855    583640.5074773978 -2.04E+04
    16 OT LS       0.12E-04    5.1                   609651.7319335472
    17 OT CG       0.12E-04    5.3   990.23946424    631727.4365135783  4.81E+04
    18 OT LS       0.58E-05    5.1                   597761.0635692970
    19 OT CG       0.58E-05    5.3  1040.44273147    610746.7709444119 -2.10E+04
    20 OT LS       0.29E-05    5.2                   665743.4684023568

  Leaving inner SCF loop after reaching    20 steps.


  Electronic density on regular grids:       -344.0200427615       87.9799572385
  Core density on regular grids:              432.0000000000       -0.0000000000
  Hard and soft densities (Lebedev):         -877.1426445959     -789.5182473240
  Total Rho_soft + Rho1_hard - Rho1_soft     -431.6444400333
  Total charge density (r-space):               0.3555599667
  Total Rho_soft + Rho0_soft (g-space):         0.3112262454

  Overlap energy of the core charge distribution:               0.00000000000000
  Self energy of the core charge distribution:               -837.82153156841810
  Core Hamiltonian energy:                                 665586.62292799283750
  Hartree energy:                                             434.83649385258207
  Exchange-correlation energy:                                  0.00000000000000
  Hartree-Fock Exchange energy:                              -435.80110750587818

  GAPW| Exc from hard and soft atomic rho1:                     0.00000000000000
  GAPW| local Eh = 1 center integrals:                        995.63161958582486

  Total energy:                                            665743.46840235684067

 *** WARNING in qs_scf.F:576 :: SCF run NOT converged ***


 !-----------------------------------------------------------------------------!
                     Mulliken Population Analysis

 #  Atom  Element  Kind  Atomic population                           Net charge
       1     Li       1          2.385364                              0.614636
       2     Li       1          2.232827                              0.767173
       3     Li       1          2.103410                              0.896590
       4     Li       1          2.222047                              0.777953
       5     H        2          0.856141                              0.143859
       6     H        2          0.816594                              0.183406
       7     H        2          0.781390                              0.218610
       8     H        2          0.836706                              0.163294
       9     Li       1          2.217653                              0.782347
      10     Li       1          1.945183                              1.054817
      11     Li       1          2.196639                              0.803361
      12     Li       1          2.124158                              0.875842
      13     H        2          1.031314                             -0.031314
      14     H        2          0.927631                              0.072369
      15     H        2          0.778305                              0.221695
      16     H        2          0.751598                              0.248402
      17     Li       1          2.450065                              0.549935
      18     Li       1          2.025047                              0.974953
      19     Li       1          2.233987                              0.766013
      20     Li       1          2.295392                              0.704608
      21     H        2          0.853765                              0.146235
      22     H        2          1.253841                             -0.253841
      23     H        2          0.928370                              0.071630
      24     H        2          0.839078                              0.160922
      25     Li       1          2.313099                              0.686901
      26     Li       1          2.280444                              0.719556
      27     Li       1          1.935799                              1.064201
      28     Li       1          2.171315                              0.828685
      29     H        2          1.033570                             -0.033570
      30     H        2          0.612625                              0.387375
      31     H        2          0.761730                              0.238270
      32     H        2          0.721049                              0.278951
      33     Li       1          2.094055                              0.905945
      34     Li       1          2.293984                              0.706016
      35     Li       1          2.170054                              0.829946
      36     Li       1          2.615261                              0.384739
      37     H        2          0.801880                              0.198120
      38     H        2          0.815764                              0.184236
      39     H        2          0.797649                              0.202351
      40     H        2          0.823597                              0.176403
      41     Li       1          2.272203                              0.727797
      42     Li       1          2.323934                              0.676066
      43     Li       1          2.051955                              0.948045
      44     Li       1          2.458893                              0.541107
      45     H        2          1.307797                             -0.307797
      46     H        2          0.839581                              0.160419
      47     H        2          0.772856                              0.227144
      48     H        2          0.818128                              0.181872
      49     Li       1          2.528683                              0.471317
      50     Li       1          2.217261                              0.782739
      51     Li       1          2.282078                              0.717922
      52     Li       1          1.998594                              1.001406
      53     H        2          1.356085                             -0.356085
      54     H        2          0.810757                              0.189243
      55     H        2          0.896827                              0.103173
      56     H        2          0.979956                              0.020044
      57     Li       1          2.278087                              0.721913
      58     Li       1          1.881011                              1.118989
      59     Li       1          2.178360                              0.821640
      60     Li       1          2.343110                              0.656890
      61     H        2          0.920456                              0.079544
      62     H        2          0.836528                              0.163472
      63     H        2          0.794943                              0.205057
      64     H        2          0.797812                              0.202188
      65     Li       1          2.999085                              0.000915
      66     Li       1          2.205246                              0.794754
      67     Li       1          2.116361                              0.883639
      68     Li       1          3.071839                             -0.071839
      69     H        2          1.360750                             -0.360750
      70     H        2          1.425274                             -0.425274
      71     H        2          1.017011                             -0.017011
      72     H        2          0.917530                              0.082470
      73     Li       1          2.146987                              0.853013
      74     Li       1          2.335897                              0.664103
      75     Li       1          2.171724                              0.828276
      76     Li       1          2.232382                              0.767618
      77     H        2          0.745651                              0.254349
      78     H        2          0.701645                              0.298355
      79     H        2          0.902046                              0.097954
      80     H        2          0.839923                              0.160077
      81     Li       1          2.019602                              0.980398
      82     Li       1          1.844586                              1.155414
      83     Li       1          2.401441                              0.598559
      84     Li       1          2.085597                              0.914403
      85     H        2          0.858456                              0.141544
      86     H        2          0.888478                              0.111522
      87     H        2          0.891645                              0.108355
      88     H        2          0.823554                              0.176446
      89     Li       1          2.142851                              0.857149
      90     Li       1          2.179701                              0.820299
      91     Li       1          2.120649                              0.879351
      92     Li       1          2.067817                              0.932183
      93     H        2          0.862745                              0.137255
      94     H        2          0.855045                              0.144955
      95     H        2          0.852104                              0.147896
      96     H        2          1.063573                             -0.063573
      97     Li       1          2.131453                              0.868547
      98     Li       1          2.390195                              0.609805
      99     Li       1          1.972202                              1.027798
     100     Li       1          1.985038                              1.014962
     101     H        2          0.835534                              0.164466
     102     H        2          0.757569                              0.242431
     103     H        2          0.848574                              0.151426
     104     H        2          0.972347                              0.027653
     105     Li       1          2.164311                              0.835689
     106     Li       1          2.174243                              0.825757
     107     Li       1          2.202278                              0.797722
     108     Li       1          2.120366                              0.879634
     109     H        2          0.789436                              0.210564
     110     H        2          0.790122                              0.209878
     111     H        2          0.848951                              0.151049
     112     H        2          1.004729                             -0.004729
     113     Li       1          2.186828                              0.813172
     114     Li       1          2.428089                              0.571911
     115     Li       1          2.172526                              0.827474
     116     Li       1          2.140338                              0.859662
     117     H        2          0.932343                              0.067657
     118     H        2          0.906966                              0.093034
     119     H        2          0.902755                              0.097245
     120     H        2          0.907736                              0.092264
     121     Li       1          2.196060                              0.803940
     122     Li       1          2.541160                              0.458840
     123     Li       1          2.148075                              0.851925
     124     Li       1          2.070457                              0.929543
     125     H        2          0.939033                              0.060967
     126     H        2          0.879160                              0.120840
     127     H        2          1.066615                             -0.066615
     128     H        2          1.017952                             -0.017952
     129     Li       1          2.200725                              0.799275
     130     Li       1          2.011426                              0.988574
     131     Li       1          2.496592                              0.503408
     132     Li       1          2.212886                              0.787114
     133     H        2          0.963354                              0.036646
     134     H        2          0.924103                              0.075897
     135     H        2          1.127054                             -0.127054
     136     H        2          1.007348                             -0.007348
[...]
                               503  threads on              1  PE
                               506  threads on              1  PE
                               509  threads on              1  PE
                               512  threads on              1  PE
                               515  threads on              1  PE
                               518  threads on              1  PE
                               899  threads on              1  PE
Number of Cores per Socket:     64
Execution start time:  Wed Mar 23 14:10:21 2022
System name and speed:  nid001128  2.250 GHz (nominal)
AMD   Rome                 CPU  Family: 23  Model: 49  Stepping:  0
Core Performance Boost:  101535 PEs have CPB capability



Avg Process Time:      383.61 secs              
High Memory:      2,444,303.4 MiBytes     596.8 MiBytes per PE
I/O Read Rate:      17.788654 MiBytes/sec       
I/O Write Rate:      0.190373 MiBytes/sec       

Notes for table 1:

  This table shows functions that have significant exclusive sample
    hits, averaged across ranks.
  For further explanation, see the "General table notes" below,
    or use:  pat_report -v -O samp_profile ...

Table 1:  Profile by Function

  Samp% |     Samp |  Imb. |  Imb. | Group
        |          |  Samp | Samp% |  Function=[MAX10]
        |          |       |       |   PE=HIDE
        |          |       |       |    Thread=HIDE
       
 100.0% | 38,120.6 |    -- |    -- | Total
|-----------------------------------------------------------------------------
|  59.6% | 22,734.6 |    -- |    -- | ETC
||----------------------------------------------------------------------------
||  52.8% | 20,146.5 | 639.5 |  3.1% | BI_Srecv
||   2.3% |    875.9 | 200.1 | 18.6% | Cblacs_gridmap
||============================================================================
|  20.4% |  7,790.6 |    -- |    -- | USER
||----------------------------------------------------------------------------
||   6.9% |  2,614.0 | 769.0 | 22.7% | __hfx_energy_potential_MOD_update_fock_matrix.constprop.0
||   2.5% |    967.4 | 299.6 | 23.7% | __hfx_energy_potential_MOD_integrate_four_center._omp_fn.0
||   1.1% |    425.4 | 116.6 | 21.5% | __ao_util_MOD_trace_r_axb
||============================================================================
|  19.8% |  7,537.9 |    -- |    -- | MPI
||----------------------------------------------------------------------------
||   6.4% |  2,424.0 | 546.0 | 18.4% | MPI_BARRIER
||   5.3% |  2,012.2 |  98.8 |  4.7% | MPI_ALLTOALLV
||   2.7% |  1,040.9 |  96.1 |  8.5% | MPI_ALLREDUCE
||   2.6% |    978.8 | 713.2 | 42.2% | MPI_WAITALL
||   1.1% |    405.9 | 390.1 | 49.0% | MPI_ISEND
|=============================================================================

Notes for table 2:

  This table shows functions, and line numbers within functions, that
    have significant exclusive sample hits, averaged across ranks.
  For further explanation, see the "General table notes" below,
    or use:  pat_report -v -O samp_profile+src ...

Table 2:  Profile by Group, Function, and Line

  Samp% |     Samp |  Imb. |  Imb. | Group
        |          |  Samp | Samp% |  Function=[MAX10]
        |          |       |       |   Source
        |          |       |       |    Line
        |          |       |       |     PE=HIDE
        |          |       |       |      Thread=HIDE
       
 100.0% | 38,120.6 |    -- |    -- | Total
|-----------------------------------------------------------------------------
|  59.6% | 22,734.6 |    -- |    -- | ETC
||----------------------------------------------------------------------------
||  52.8% | 20,146.5 | 639.5 |  3.1% | BI_Srecv
||   2.3% |    875.9 | 200.1 | 18.6% | Cblacs_gridmap
||============================================================================
|  20.4% |  7,790.6 |    -- |    -- | USER
||----------------------------------------------------------------------------
||   6.9% |  2,614.0 |    -- |    -- | __hfx_energy_potential_MOD_update_fock_matrix.constprop.0
3|        |          |       |       |  CP2K/cp2k-8.2/src/hfx_energy_potential.F
||||--------------------------------------------------------------------------
4|||   1.1% |    409.1 | 137.9 | 25.2% | line.2580
4|||   1.2% |    445.4 | 147.6 | 24.9% | line.2603
4|||   1.0% |    380.4 | 164.6 | 30.2% | line.2649
||||==========================================================================
||   2.5% |    967.4 |    -- |    -- | __hfx_energy_potential_MOD_integrate_four_center._omp_fn.0
3|   2.3% |    891.4 |    -- |    -- |  CP2K/cp2k-8.2/src/hfx_energy_potential.F
||   1.1% |    425.4 |    -- |    -- | __ao_util_MOD_trace_r_axb
3|        |          |       |       |  cp2k-8.2/src/aobasis/ao_util.F
||============================================================================
|  19.8% |  7,537.9 |    -- |    -- | MPI
||----------------------------------------------------------------------------
||   6.4% |  2,424.0 | 546.0 | 18.4% | MPI_BARRIER
||   5.3% |  2,012.2 |  98.8 |  4.7% | MPI_ALLTOALLV
||   2.7% |  1,040.9 |  96.1 |  8.5% | MPI_ALLREDUCE
||   2.6% |    978.8 | 713.2 | 42.2% | MPI_WAITALL
||   1.1% |    405.9 | 390.1 | 49.0% | MPI_ISEND
|=============================================================================

Notes for table 3:

  This table shows functions that have the most significant exclusive
    time, taking for each thread the average time across ranks.
    The imbalance percentage is relative to the team observed to
    participate in execution.
    Use -s th=ALL to see individual thread values.
  For further explanation, see the "General table notes" below,
    or use:  pat_report -v -O profile_th_pe ...

Table 3:  Profile by Function Group and Function

  Samp% |     Samp |    Imb. |   Imb. | Team | Group
        |          |    Samp |  Samp% | Size |  Function=[MAX10]
        |          |         |        |      |   Thread=HIDE
        |          |         |        |      |    PE=HIDE
       
 100.0% | 38,120.6 |      -- |     -- |   -- | Total
|-----------------------------------------------------------------------------
|  59.6% | 22,734.6 |      -- |     -- |   -- | ETC
||----------------------------------------------------------------------------
||  52.8% | 20,146.5 |      -- |     -- |    1 | BI_Srecv
||   2.3% |    875.9 |      -- |     -- |    1 | Cblacs_gridmap
||============================================================================
|  20.4% |  7,790.6 |      -- |     -- |   -- | USER
||----------------------------------------------------------------------------
||   6.9% |  2,614.0 | 2,500.4 |  96.7% |   92 | __hfx_energy_potential_MOD_update_fock_matrix.constprop.0
||   2.5% |    967.4 |   929.4 |  97.1% |   92 | __hfx_energy_potential_MOD_integrate_four_center._omp_fn.0
||   1.1% |    425.4 |      -- |     -- |    1 | __ao_util_MOD_trace_r_axb
||============================================================================
|  19.8% |  7,537.9 |      -- |     -- |   -- | MPI
||----------------------------------------------------------------------------
||   6.4% |  2,424.0 |      -- |     -- |    1 | MPI_BARRIER
||   5.3% |  2,012.2 |      -- |     -- |    1 | MPI_ALLTOALLV
||   2.7% |  1,040.9 |   892.2 | 100.0% |    7 | MPI_ALLREDUCE
||   2.6% |    978.8 |      -- |     -- |    1 | MPI_WAITALL
||   1.1% |    405.9 |      -- |     -- |    1 | MPI_ISEND
|=============================================================================

Observation:  Metric-Based Rank Order

    When the use of a shared resource like memory bandwidth is unbalanced
    across nodes, total execution time may be reduced with a rank order
    that improves the balance.  The metric used here for resource usage
    is: USER Samp

    For each node, the metric values for the ranks on that node are
    summed.  The maximum and average value of those sums are shown below
    for both the current rank order and a custom rank order that seeks
    to reduce the maximum value.

    A file named MPICH_RANK_ORDER.USER_Samp was generated
    along with this report and contains usage instructions and the
    Custom rank order from the following table.

       Rank    Node Reduction    Maximum  Average
      Order  Metric    in Max      Value  Value
               Imb.     Value             

    Current  98.43%            5.712e+07  8.974e+05
     Custom   0.54%   98.420%  9.022e+05  8.974e+05


Observation:  Memory Bandwidth as Percent of Peak

    Memory bandwith utilization of 109.73 GBytes/sec is 53.6% of nominal
    peak, which exceeds the guideline of 50.0%. This may mean that there
    are intervals during the execution of the program in which memory
    bandwidth is saturated.


Notes for table 4:

  This table shows memory traffic for numa nodes, taking for each numa
    node the maximum value across nodes. It also shows the balance in
    memory traffic by showing the top 3 and bottom 3 node values.
  For further explanation, see the "General table notes" below,
    or use:  pat_report -v -O mem_bw ...

Table 4:  Memory Bandwidth by Numanode

  Memory |    Read |   Write |     Thread |  Memory |  Memory | Numanode
 Traffic |  Memory |  Memory |       Time | Traffic | Traffic |  Node Id=[max3,min3]
  GBytes | Traffic | Traffic |            |  GBytes |       / |   PE=HIDE
         |  GBytes |  GBytes |            |   / Sec | Nominal |    Thread=HIDE
         |         |         |            |         |    Peak | 
|-----------------------------------------------------------------------------
|  40,595 |  31,362 |   9,233 | 383.747741 |  105.78 |   51.7% | numanode.0
||----------------------------------------------------------------------------
||  40,595 |  31,362 |   9,233 | 383.747741 |  105.78 |   51.7% | nid.0
||  685.84 |  542.17 |  143.67 | 383.507481 |    1.79 |    0.9% | nid.1128
||  667.27 |  491.81 |  175.46 | 383.510791 |    1.74 |    0.8% | nid.1134
||  620.08 |  484.80 |  135.28 | 383.505311 |    1.62 |    0.8% | nid.1176
||  618.93 |  481.43 |  137.50 | 383.508045 |    1.61 |    0.8% | nid.1184
||  470.10 |  365.23 |  104.87 | 383.506067 |    1.23 |    0.6% | nid.1833
||============================================================================
|  41,031 |  31,764 |   9,267 | 383.747619 |  106.92 |   52.2% | numanode.1
||----------------------------------------------------------------------------
||  41,031 |  31,764 |   9,267 | 383.747619 |  106.92 |   52.2% | nid.0
||  671.13 |  482.93 |  188.20 | 383.501103 |    1.75 |    0.9% | nid.1170
||  667.85 |  492.53 |  175.32 | 383.503575 |    1.74 |    0.9% | nid.1228
||  622.75 |  482.90 |  139.85 | 383.488096 |    1.62 |    0.8% | nid.1840
||  620.95 |  481.60 |  139.35 | 383.500154 |    1.62 |    0.8% | nid.1146
||  620.93 |  484.02 |  136.91 | 383.499825 |    1.62 |    0.8% | nid.1768
||============================================================================
|  41,819 |  32,224 |   9,595 | 383.749143 |  108.98 |   53.2% | numanode.2
||----------------------------------------------------------------------------
||  41,819 |  32,224 |   9,595 | 383.749143 |  108.98 |   53.2% | nid.0
||  700.13 |  492.49 |  207.64 | 383.503620 |    1.83 |    0.9% | nid.1237
||  663.35 |  489.25 |  174.09 | 383.487111 |    1.73 |    0.8% | nid.1163
||  618.19 |  482.33 |  135.86 | 383.502995 |    1.61 |    0.8% | nid.1192
||  615.56 |  476.60 |  138.96 | 383.499900 |    1.61 |    0.8% | nid.1146
||  615.21 |  478.20 |  137.01 | 383.501279 |    1.60 |    0.8% | nid.1840
||============================================================================
|  41,898 |  32,350 |   9,547 | 383.737747 |  109.18 |   53.3% | numanode.3
||----------------------------------------------------------------------------
||  41,898 |  32,350 |   9,547 | 383.737747 |  109.18 |   53.3% | nid.0
||  683.13 |  491.31 |  191.82 | 383.490698 |    1.78 |    0.9% | nid.1228
||  657.05 |  488.80 |  168.25 | 383.503961 |    1.71 |    0.8% | nid.1774
||  623.51 |  484.27 |  139.24 | 383.499223 |    1.63 |    0.8% | nid.1840
||  623.27 |  481.98 |  141.28 | 383.504428 |    1.63 |    0.8% | nid.1835
||  621.92 |  485.47 |  136.46 | 383.486365 |    1.62 |    0.8% | nid.1172
||============================================================================
|  42,987 |  32,999 |   9,987 | 383.748999 |  112.02 |   54.7% | numanode.4
||----------------------------------------------------------------------------
||  42,987 |  32,999 |   9,987 | 383.748999 |  112.02 |   54.7% | nid.0
||  668.67 |  499.05 |  169.62 | 383.506748 |    1.74 |    0.9% | nid.1224
||  664.90 |  496.19 |  168.71 | 383.505991 |    1.73 |    0.8% | nid.1172
||  635.81 |  494.72 |  141.09 | 383.507562 |    1.66 |    0.8% | nid.1208
||  635.48 |  493.04 |  142.44 | 383.505894 |    1.66 |    0.8% | nid.1835
||  635.42 |  495.52 |  139.90 | 383.487773 |    1.66 |    0.8% | nid.1188
||============================================================================
|  42,393 |  32,779 |   9,613 | 383.750919 |  110.47 |   53.9% | numanode.5
||----------------------------------------------------------------------------
||  42,393 |  32,779 |   9,613 | 383.750919 |  110.47 |   53.9% | nid.0
||  671.58 |  495.97 |  175.61 | 383.502689 |    1.75 |    0.9% | nid.1156
||  667.93 |  495.02 |  172.91 | 383.502013 |    1.74 |    0.9% | nid.1134
||  632.72 |  491.74 |  140.98 | 383.500773 |    1.65 |    0.8% | nid.1204
||  632.20 |  492.83 |  139.37 | 383.504010 |    1.65 |    0.8% | nid.1136
||  630.47 |  488.91 |  141.56 | 383.488752 |    1.64 |    0.8% | nid.1190
||============================================================================
|  42,384 |  32,795 |   9,588 | 383.752255 |  110.45 |   53.9% | numanode.6
||----------------------------------------------------------------------------
||  42,384 |  32,795 |   9,588 | 383.752255 |  110.45 |   53.9% | nid.0
||  665.32 |  498.35 |  166.97 | 383.504162 |    1.73 |    0.8% | nid.1237
||  655.17 |  505.16 |  150.01 | 383.512098 |    1.71 |    0.8% | nid.1130
||  635.06 |  493.66 |  141.40 | 383.508296 |    1.66 |    0.8% | nid.1142
||  634.98 |  492.87 |  142.11 | 383.501948 |    1.66 |    0.8% | nid.1196
||  630.57 |  490.35 |  140.22 | 383.499840 |    1.64 |    0.8% | nid.1835
||============================================================================
|  29,631 |  22,823 |   6,808 | 383.747909 |   77.22 |   37.7% | numanode.7
||----------------------------------------------------------------------------
||  29,631 |  22,823 |   6,808 | 383.747909 |   77.22 |   37.7% | nid.0
||  624.20 |  465.35 |  158.86 | 383.498242 |    1.63 |    0.8% | nid.1768
||  613.44 |  474.43 |  139.01 | 383.512194 |    1.60 |    0.8% | nid.1130
||  155.75 |  122.04 |   33.71 | 383.511833 |    0.41 |    0.2% | nid.1834
||  155.25 |  121.52 |   33.74 | 383.509237 |    0.40 |    0.2% | nid.1838
||  155.19 |  121.21 |   33.98 | 383.497364 |    0.40 |    0.2% | nid.1207
|=============================================================================

Notes for table 5:

  This table shows energy and power usage for the nodes with the
    maximum, mean, and minimum usage, as well as the sum of usage over
    all nodes.
    Energy and power for accelerators is also shown, if applicable.
  For further explanation, see the "General table notes" below,
    or use:  pat_report -v -O program_energy ...

Table 5:  Program energy and power usage (from Cray PM)

       Node | Node Power |    Process | Node Id=[mmm]
 Energy (J) |        (W) |       Time |  PE=HIDE
            |            |            |   Thread=HIDE
           
 19,658,624 | 51,246.090 | 383.612175 | Total
|----------------------------------------------------
|    165,658 |    431.843 | 383.606609 | nid.1778
|    151,634 |    395.283 | 383.608848 | nid.1130
|    142,901 |    372.521 | 383.605576 | nid.1138
|====================================================

Notes for table 6:

  This table show the average time and number of bytes read from each
    input file, taking the average over the number of ranks that read
    from the file.  It also shows the number of read operations, and
    average rates.
  For further explanation, see the "General table notes" below,
    or use:  pat_report -v -O read_stats ...

Table 6:  File Input Stats by Filename

 Avg Read |  Avg Read |   Read Rate | Number |     Avg |     Bytes/ | File Name=!x/^/(proc|sys)/
 Time per |   MiBytes | MiBytes/sec |     of |   Reads |       Call |  PE=HIDE
   Reader |       per |             | Reader |     per |            | 
     Rank |    Reader |             |  Ranks |  Reader |            | 
          |      Rank |             |        |    Rank |            | 
|-----------------------------------------------------------------------------
| 0.337124 | 13.385548 |   39.705135 |      1 |   108.0 | 129,960.78 | B88.wfn
| 0.296355 | 11.917282 |   40.212793 |      1 | 1,527.0 |   8,183.48 | ./t_c_g.dat
| 0.056593 |  0.258743 |    4.572002 |      1 |    38.0 |   7,139.79 | ./POTENTIAL
| 0.011779 |  0.005267 |    0.447168 |      1 |     3.0 |   1,841.00 | input_bulk_HFX_3.inp
| 0.010395 |  0.004263 |    0.410104 |      1 |     6.0 |     745.00 | ./BASIS_OPT
|=============================================================================

Notes for table 7:

  This table show the average time and number of bytes written to each
    output file, taking the average over the number of ranks that
    wrote to the file.  It also shows the number of write operations,
    and average rates.
  For further explanation, see the "General table notes" below,
    or use:  pat_report -v -O write_stats ...

Table 7:  File Output Stats by Filename

      Avg |      Avg |  Write Rate | Number |   Avg Writes | Bytes/ | File Name=!x/^/(proc|sys)/
    Write |    Write | MiBytes/sec |     of |   per Writer |   Call |  PE=HIDE
 Time per |  MiBytes |             | Writer |         Rank |        | 
   Writer |      per |             |  Ranks |              |        | 
     Rank |   Writer |             |        |              |        | 
          |     Rank |             |        |              |        | 
|-----------------------------------------------------------------------------
| 5.159140 | 0.717487 |    0.139071 |  4,096 | 19,149,849.9 |   0.04 | _UnknownFile_
| 0.017324 | 0.267933 |   15.466429 |  4,096 |      3,885.6 |  72.31 | /dev/infiniband/rdma_cm
| 0.001588 | 0.160146 |  100.838566 |      1 |      2,523.0 |  66.56 | stdout
|=============================================================================

Table 8:  Lustre File Information

            File Path |    Stripe | Stripe | Stripe | OST list
                      |      size | offset |  count | 
--------------------------------------------------------------
 input_bulk_HFX_3.inp | 1,048,576 |      0 |      1 | 8
          ./BASIS_OPT | 1,048,576 |      0 |      1 | 6
          ./POTENTIAL | 1,048,576 |      0 |      1 | 10
              B88.wfn | 1,048,576 |      0 |      1 | 5
          ./t_c_g.dat | 1,048,576 |      0 |      1 | 1
==============================================================
Program invocation:
  /work/z19/z19/aturner/software/CP2K/cp2k-8.2/exe/ARCHER2/cp2k.psmp -i input_bulk_HFX_3.inp

For a complete report with expanded tables and notes, run:
  pat_report /mnt/lustre/a2fs-work2/work/z19/z19/aturner/benchmark/ofi-vs-ucx/CP2K/LiH_HFX/calc/OFI/cp2k.psmp+45192-1128s

For help identifying callers of particular functions:
  pat_report -O callers+src /mnt/lustre/a2fs-work2/work/z19/z19/aturner/benchmark/ofi-vs-ucx/CP2K/LiH_HFX/calc/OFI/cp2k.psmp+45192-1128s
To see the entire call tree:
  pat_report -O calltree+src /mnt/lustre/a2fs-work2/work/z19/z19/aturner/benchmark/ofi-vs-ucx/CP2K/LiH_HFX/calc/OFI/cp2k.psmp+45192-1128s

For interactive, graphical performance analysis, run:
  app2 /mnt/lustre/a2fs-work2/work/z19/z19/aturner/benchmark/ofi-vs-ucx/CP2K/LiH_HFX/calc/OFI/cp2k.psmp+45192-1128s

================  End of CrayPat-lite output  ==========================
