 DBCSR| CPU Multiplication driver                                           BLAS
 DBCSR| Multrec recursion limit                                              512
 DBCSR| Multiplication stack size                                           1000
 DBCSR| Maximum elements for images                                    UNLIMITED
 DBCSR| Multiplicative factor virtual images                                   1
 DBCSR| Use multiplication densification                                       T
 DBCSR| Multiplication size stacks                                             3
 DBCSR| Use memory pool for CPU allocation                                     F
 DBCSR| Number of 3D layers                                               SINGLE
 DBCSR| Use MPI memory allocation                                              F
 DBCSR| Use RMA algorithm                                                      F
 DBCSR| Use Communication thread                                               T
 DBCSR| Communication thread load                                             75
 DBCSR| MPI: My node id                                                        0
 DBCSR| MPI: Number of nodes                                                2048
 DBCSR| OMP: Current number of threads                                         4
 DBCSR| OMP: Max number of threads                                             4
 DBCSR| Split modifier for TAS multiplication algorithm                  1.0E+00


  **** **** ******  **  PROGRAM STARTED AT               2022-03-28 15:44:19.920
 ***** ** ***  *** **   PROGRAM STARTED ON                             nid004840
 **    ****   ******    PROGRAM STARTED BY                               aturner
 ***** **    ** ** **   PROGRAM PROCESS ID                                122934
  **** **  *******  **  PROGRAM STARTED IN /mnt/lustre/a2fs-work2/work/z19/z19/a
                                           turner/benchmark/ofi-vs-ucx/CP2K/LiH_
                                           HFX/calc/OFI

 CP2K| version string:                                          CP2K version 8.2
 CP2K| source code revision number:                                  git:310b7ab
 CP2K| cp2kflags: omp libint fftw3 libxc elpa parallel mpi3 scalapack           
 CP2K| is freely available from                            https://www.cp2k.org/
 CP2K| Program compiled at                          Wed 23 Mar 12:19:29 GMT 2022
 CP2K| Program compiled on                                                  ln04
 CP2K| Program compiled for                                              ARCHER2
 CP2K| Data directory path                   /work/y07/shared/cp2k/cp2k-8.1/data
 CP2K| Input file name                                      input_bulk_HFX_3.inp

 GLOBAL| Force Environment number                                              1
 GLOBAL| Basis set file name                                         ./BASIS_OPT
 GLOBAL| Potential file name                                         ./POTENTIAL
 GLOBAL| MM Potential file name                                     MM_POTENTIAL
 GLOBAL| Coordinate file name                                      __STD_INPUT__
 GLOBAL| Method name                                                        CP2K
 GLOBAL| Project name                                                 LiH_bulk_3
 GLOBAL| Run type                                                         ENERGY
 GLOBAL| FFT library                                                       FFTW3
 GLOBAL| Diagonalization library                                            ELPA
 GLOBAL| Minimum number of eigenvectors for ELPA usage                        16
 GLOBAL| Orthonormality check for eigenvectors                          DISABLED
 GLOBAL| Matrix multiplication library                                    SCALAP
 GLOBAL| All-to-all communication in single precision                          F
 GLOBAL| FFTs using library dependent lengths                                  F
 GLOBAL| Grid backend                                                       AUTO
 GLOBAL| Global print level                                               MEDIUM
 GLOBAL| MPI I/O enabled                                                       T
 GLOBAL| Total number of message passing processes                          2048
 GLOBAL| Number of threads for this process                                    4
 GLOBAL| This output is from process                                           0
 GLOBAL| CPU model name                          AMD EPYC 7742 64-Core Processor
 GLOBAL| CPUID                                                              1002

 MEMORY| system memory details [Kb]
 MEMORY|                        rank 0           min           max       average
 MEMORY| MemTotal            263528088     263528084     263528088     263528087
 MEMORY| MemFree             245164048     244729160     247593200     246411608
 MEMORY| Buffers                 36224         19780         36224         23480
 MEMORY| Cached                2894840       1218356       3107284       1982715
 MEMORY| Slab                  1837404       1564720       1837404       1717046
 MEMORY| SReclaimable           228720         82628        228720        186687
 MEMORY| MemLikelyFree       248323832     248074736     249000476     248604492


 *** Fundamental physical constants (SI units) ***

 *** Literature: B. J. Mohr and B. N. Taylor,
 ***             CODATA recommended values of the fundamental physical
 ***             constants: 2006, Web Version 5.1
 ***             http://physics.nist.gov/constants

 Speed of light in vacuum [m/s]                             2.99792458000000E+08
 Magnetic constant or permeability of vacuum [N/A**2]       1.25663706143592E-06
 Electric constant or permittivity of vacuum [F/m]          8.85418781762039E-12
 Planck constant (h) [J*s]                                  6.62606896000000E-34
 Planck constant (h-bar) [J*s]                              1.05457162825177E-34
 Elementary charge [C]                                      1.60217648700000E-19
 Electron mass [kg]                                         9.10938215000000E-31
 Electron g factor [ ]                                     -2.00231930436220E+00
 Proton mass [kg]                                           1.67262163700000E-27
 Fine-structure constant                                    7.29735253760000E-03
 Rydberg constant [1/m]                                     1.09737315685270E+07
 Avogadro constant [1/mol]                                  6.02214179000000E+23
 Boltzmann constant [J/K]                                   1.38065040000000E-23
 Atomic mass unit [kg]                                      1.66053878200000E-27
 Bohr radius [m]                                            5.29177208590000E-11

 *** Conversion factors ***

 [u] -> [a.u.]                                              1.82288848426455E+03
 [Angstrom] -> [Bohr] = [a.u.]                              1.88972613288564E+00
 [a.u.] = [Bohr] -> [Angstrom]                              5.29177208590000E-01
 [a.u.] -> [s]                                              2.41888432650478E-17
 [a.u.] -> [fs]                                             2.41888432650478E-02
 [a.u.] -> [J]                                              4.35974393937059E-18
 [a.u.] -> [N]                                              8.23872205491840E-08
 [a.u.] -> [K]                                              3.15774647902944E+05
 [a.u.] -> [kJ/mol]                                         2.62549961709828E+03
 [a.u.] -> [kcal/mol]                                       6.27509468713739E+02
 [a.u.] -> [Pa]                                             2.94210107994716E+13
 [a.u.] -> [bar]                                            2.94210107994716E+08
 [a.u.] -> [atm]                                            2.90362800883016E+08
 [a.u.] -> [eV]                                             2.72113838565563E+01
 [a.u.] -> [Hz]                                             6.57968392072181E+15
 [a.u.] -> [1/cm] (wave numbers)                            2.19474631370540E+05
 [a.u./Bohr**2] -> [1/cm]                                   5.14048714338585E+03
 

 CELL_TOP| Volume [angstrom^3]:                                      1839.166147
 CELL_TOP| Vector a [angstrom    12.252     0.000     0.000   |a| =    12.252000
 CELL_TOP| Vector b [angstrom     0.000    12.252     0.000   |b| =    12.252000
 CELL_TOP| Vector c [angstrom     0.000     0.000    12.252   |c| =    12.252000
 CELL_TOP| Angle (b,c), alpha [degree]:                                90.000000
 CELL_TOP| Angle (a,c), beta  [degree]:                                90.000000
 CELL_TOP| Angle (a,b), gamma [degree]:                                90.000000
 CELL_TOP| Numerically orthorhombic:                                         YES

 GENERATE|  Preliminary Number of Bonds generated:                             0
 GENERATE|  Achieved consistency in connectivity generation.

 CELL| Volume [angstrom^3]:                                          1839.166147
 CELL| Vector a [angstrom]:      12.252     0.000     0.000   |a| =    12.252000
 CELL| Vector b [angstrom]:       0.000    12.252     0.000   |b| =    12.252000
 CELL| Vector c [angstrom]:       0.000     0.000    12.252   |c| =    12.252000
 CELL| Angle (b,c), alpha [degree]:                                    90.000000
 CELL| Angle (a,c), beta  [degree]:                                    90.000000
 CELL| Angle (a,b), gamma [degree]:                                    90.000000
 CELL| Numerically orthorhombic:                                             YES

 CELL_REF| Volume [angstrom^3]:                                      1839.166147
 CELL_REF| Vector a [angstrom    12.252     0.000     0.000   |a| =    12.252000
 CELL_REF| Vector b [angstrom     0.000    12.252     0.000   |b| =    12.252000
 CELL_REF| Vector c [angstrom     0.000     0.000    12.252   |c| =    12.252000
 CELL_REF| Angle (b,c), alpha [degree]:                                90.000000
 CELL_REF| Angle (a,c), beta  [degree]:                                90.000000
 CELL_REF| Angle (a,b), gamma [degree]:                                90.000000
 CELL_REF| Numerically orthorhombic:                                         YES

 *******************************************************************************
 *******************************************************************************
 **                                                                           **
 **     #####                         ##              ##                      **
 **    ##   ##            ##          ##              ##                      **
 **   ##     ##                       ##            ######                    **
 **   ##     ##  ##   ##  ##   #####  ##  ##   ####   ##    #####    #####    **
 **   ##     ##  ##   ##  ##  ##      ## ##   ##      ##   ##   ##  ##   ##   **
 **   ##  ## ##  ##   ##  ##  ##      ####     ###    ##   ######   ######    **
 **    ##  ###   ##   ##  ##  ##      ## ##      ##   ##   ##       ##        **
 **     #######   #####   ##   #####  ##  ##  ####    ##    #####   ##        **
 **           ##                                                    ##        **
 **                                                                           **
 **                                                ... make the atoms dance   **
 **                                                                           **
 **            Copyright (C) by CP2K developers group (2000-2021)             **
 **                      J. Chem. Phys. 152, 194103 (2020)                    **
 **                                                                           **
 *******************************************************************************

 DFT| Spin restricted Kohn-Sham (RKS) calculation                            RKS
 DFT| Multiplicity                                                             1
 DFT| Number of spin states                                                    1
 DFT| Charge                                                                   0
 DFT| Self-interaction correction (SIC)                                       NO
 DFT| Cutoffs: density                                              1.000000E-10
 DFT|          gradient                                             1.000000E-10
 DFT|          tau                                                  1.000000E-10
 DFT|          cutoff_smoothing_range                               0.000000E+00
 DFT| XC density smoothing                                                  NONE
 DFT| XC derivatives                                                          PW
 FUNCTIONAL| NO EXCHANGE-CORRELATION FUNCTIONAL USED.

 QS| Method:                                                                GAPW
 QS| Density plane wave grid type                        NON-SPHERICAL FULLSPACE
 QS| Number of grid levels:                                                    4
 QS| Density cutoff [a.u.]:                                                150.0
 QS| Multi grid cutoff [a.u.]: 1) grid level                               150.0
 QS|                           2) grid level                                50.0
 QS|                           3) grid level                                16.7
 QS|                           4) grid level                                 5.6
 QS| Grid level progression factor:                                          3.0
 QS| Relative density cutoff [a.u.]:                                        25.0
 QS| Interaction thresholds: eps_pgf_orb:                                1.0E-16
 QS|                         eps_filter_matrix:                          0.0E+00
 QS|                         eps_core_charge:                            1.0E-14
 QS|                         eps_rho_gspace:                             1.0E-12
 QS|                         eps_rho_rspace:                             1.0E-12
 QS|                         eps_gvg_rspace:                             1.0E-06
 QS|                         eps_ppl:                                    1.0E-02
 QS|                         eps_ppnl:                                   1.0E-08
 QS| GAPW|                   eps_fit:                                    1.0E-04
 QS| GAPW|                   eps_iso:                                    1.0E-12
 QS| GAPW|                   eps_svd:                                    1.0E-08
 QS| GAPW|                   eps_cpc:                                    1.0E-12
 QS| GAPW|   atom-r-grid: quadrature:                                     GC_LOG
 QS| GAPW|      atom-s-grid:  max l :                                          6
 QS| GAPW|      max_l_rho0 :                                                   2


 ATOMIC KIND INFORMATION

  1. Atomic kind: Li                                    Number of atoms:     108

     Orbital Basis Set                                                      OPT2

       Number of orbital shell sets:                                          19
       Number of orbital shells:                                              19
       Number of primitive Cartesian functions:                               22
       Number of Cartesian basis functions:                                   48
       Number of spherical basis functions:                                   43
       Norm type:                                                              2

       Normalised Cartesian orbitals:

                        Set   Shell   Orbital            Exponent    Coefficient

                          1       1    1s             1336.034059     157.497346

                          2       1    1s              444.299817      68.971106

                          3       1    1s              147.797018      30.210600

                          4       1    1s               49.209451      13.241784

                          5       1    1s               16.428957       5.815909

                          6       1    1s                5.529399       2.569914

                          7       1    1s                1.905282       1.155792

                          8       1    1s                0.700259       0.545574

                          9       1    1s                0.299587       0.288604

                         10       1    1s                0.166363       0.185653

                         11       1    1px               1.570911       2.506857
                         11       1    1py               1.570911       2.506857
                         11       1    1pz               1.570911       2.506857

                         12       1    1px               0.748759       0.992813
                         12       1    1py               0.748759       0.992813
                         12       1    1pz               0.748759       0.992813

                         13       1    1px               0.386141       0.433883
                         13       1    1py               0.386141       0.433883
                         13       1    1pz               0.386141       0.433883

                         14       1    1px               0.226205       0.222366
                         14       1    1py               0.226205       0.222366
                         14       1    1pz               0.226205       0.222366

                         15       1    1dx2              0.779208       1.063661
                         15       1    1dxy              0.779208       1.842314
                         15       1    1dxz              0.779208       1.842314
                         15       1    1dy2              0.779208       1.063661
                         15       1    1dyz              0.779208       1.842314
                         15       1    1dz2              0.779208       1.063661

                         16       1    1dx2              0.407899       0.342671
                         16       1    1dxy              0.407899       0.593523
                         16       1    1dxz              0.407899       0.593523
                         16       1    1dy2              0.407899       0.342671
                         16       1    1dyz              0.407899       0.593523
                         16       1    1dz2              0.407899       0.342671

                         17       1    1fx3              0.737063       0.741037
                         17       1    1fx2y             0.737063       1.657009
                         17       1    1fx2z             0.737063       1.657009
                         17       1    1fxy2             0.737063       1.657009
                         17       1    1fxyz             0.737063       2.870024
                         17       1    1fxz2             0.737063       1.657009
                         17       1    1fy3              0.737063       0.741037
                         17       1    1fy2z             0.737063       1.657009
                         17       1    1fyz2             0.737063       1.657009
                         17       1    1fz3              0.737063       0.741037

                         18       1    1s            70681.000000      77.181651
                                                     13594.000000     137.129824
                                                      3100.400000     260.757508

                         19       1    1px              28.500000      10.037838
                                                         6.640000      14.250477
                         19       1    1py              28.500000      10.037838
                                                         6.640000      14.250477
                         19       1    1pz              28.500000      10.037838
                                                         6.640000      14.250477

       Atomic covalent radius [Angstrom]:                                  1.230

       Atomic van der Waals radius [Angstrom]:                             1.820

     The atoms of this atomic kind are PAW atoms (GAPW):
       Hard Gaussian function radius:                                      1.512
       Rho0 radius:                                                        1.512
       Maximum GTO radius used for PAW projector construction:            24.566

     GAPW Soft Basis Set                                               OPT2_soft

       Number of orbital shell sets:                                          19
       Number of orbital shells:                                              19
       Number of primitive Cartesian functions:                               11
       Number of Cartesian basis functions:                                   48
       Number of spherical basis functions:                                   43
       Norm type:                                                              2

       Normalised Cartesian orbitals:

                        Set   Shell   Orbital            Exponent    Coefficient

                          1       1    1s         

                          2       1    1s         

                          3       1    1s         

                          4       1    1s         

                          5       1    1s         

                          6       1    1s         

                          7       1    1s                1.905282       1.155792

                          8       1    1s                0.700259       0.545574

                          9       1    1s                0.299587       0.288604

                         10       1    1s                0.166363       0.185653

                         11       1    1px               1.570911       2.506857
                         11       1    1py               1.570911       2.506857
                         11       1    1pz               1.570911       2.506857

                         12       1    1px               0.748759       0.992813
                         12       1    1py               0.748759       0.992813
                         12       1    1pz               0.748759       0.992813

                         13       1    1px               0.386141       0.433883
                         13       1    1py               0.386141       0.433883
                         13       1    1pz               0.386141       0.433883

                         14       1    1px               0.226205       0.222366
                         14       1    1py               0.226205       0.222366
                         14       1    1pz               0.226205       0.222366

                         15       1    1dx2              0.779208       1.063661
                         15       1    1dxy              0.779208       1.842314
                         15       1    1dxz              0.779208       1.842314
                         15       1    1dy2              0.779208       1.063661
                         15       1    1dyz              0.779208       1.842314
                         15       1    1dz2              0.779208       1.063661

                         16       1    1dx2              0.407899       0.342671
                         16       1    1dxy              0.407899       0.593523
                         16       1    1dxz              0.407899       0.593523
                         16       1    1dy2              0.407899       0.342671
                         16       1    1dyz              0.407899       0.593523
                         16       1    1dz2              0.407899       0.342671

                         17       1    1fx3              0.737063       0.741037
                         17       1    1fx2y             0.737063       1.657009
                         17       1    1fx2z             0.737063       1.657009
                         17       1    1fxy2             0.737063       1.657009
                         17       1    1fxyz             0.737063       2.870024
                         17       1    1fxz2             0.737063       1.657009
                         17       1    1fy3              0.737063       0.741037
                         17       1    1fy2z             0.737063       1.657009
                         17       1    1fyz2             0.737063       1.657009
                         17       1    1fz3              0.737063       0.741037

                         18       1    1s         

                         19       1    1px        
                         19       1    1py        
                         19       1    1pz        

     AE Potential information for                                            ALL

       Description:                                       All-electron potential
                                          Krack, Parrinello, PCCP 2, 2105 (2000)

       Gaussian exponent of the core charge distribution:               3.125000
       Electronic configuration (s p d ...):                           3   0   0

  2. Atomic kind: H                                     Number of atoms:     108

     Orbital Basis Set                                                      OPT2

       Number of orbital shell sets:                                          12
       Number of orbital shells:                                              12
       Number of primitive Cartesian functions:                               14
       Number of Cartesian basis functions:                                   37
       Number of spherical basis functions:                                   32
       Norm type:                                                              2

       Normalised Cartesian orbitals:

                        Set   Shell   Orbital            Exponent    Coefficient

                          1       1    1s               27.463675       8.550255

                          2       1    1s                6.855926       3.019671

                          3       1    1s                1.767997       1.092751

                          4       1    1s                0.511818       0.431268

                          5       1    1s                0.201675       0.214486

                          6       1    1px               2.124086       3.655151
                          6       1    1py               2.124086       3.655151
                          6       1    1pz               2.124086       3.655151

                          7       1    1px               1.073681       1.557881
                          7       1    1py               1.073681       1.557881
                          7       1    1pz               1.073681       1.557881

                          8       1    1px               0.568387       0.703469
                          8       1    1py               0.568387       0.703469
                          8       1    1pz               0.568387       0.703469

                          9       1    1dx2              0.928338       1.445092
                          9       1    1dxy              0.928338       2.502973
                          9       1    1dxz              0.928338       2.502973
                          9       1    1dy2              0.928338       1.445092
                          9       1    1dyz              0.928338       2.502973
                          9       1    1dz2              0.928338       1.445092

                         10       1    1dx2              0.495830       0.482216
                         10       1    1dxy              0.495830       0.835223
                         10       1    1dxz              0.495830       0.835223
                         10       1    1dy2              0.495830       0.482216
                         10       1    1dyz              0.495830       0.835223
                         10       1    1dz2              0.495830       0.482216

                         11       1    1fx3              1.207348       2.249456
                         11       1    1fx2y             1.207348       5.029937
                         11       1    1fx2z             1.207348       5.029937
                         11       1    1fxy2             1.207348       5.029937
                         11       1    1fxyz             1.207348       8.712106
                         11       1    1fxz2             1.207348       5.029937
                         11       1    1fy3              1.207348       2.249456
                         11       1    1fy2z             1.207348       5.029937
                         11       1    1fyz2             1.207348       5.029937
                         11       1    1fz3              1.207348       2.249456

                         12       1    1s             3079.700000       6.291525
                                                       461.520000      11.778577
                                                       105.060000      20.410428

       Atomic covalent radius [Angstrom]:                                  0.320

       Atomic van der Waals radius [Angstrom]:                             1.090

     The atoms of this atomic kind are PAW atoms (GAPW):
       Hard Gaussian function radius:                                      1.200
       Rho0 radius:                                                        1.200
       Maximum GTO radius used for PAW projector construction:            24.566

     GAPW Soft Basis Set                                               OPT2_soft

       Number of orbital shell sets:                                          12
       Number of orbital shells:                                              12
       Number of primitive Cartesian functions:                                9
       Number of Cartesian basis functions:                                   37
       Number of spherical basis functions:                                   32
       Norm type:                                                              2

       Normalised Cartesian orbitals:

                        Set   Shell   Orbital            Exponent    Coefficient

                          1       1    1s         

                          2       1    1s         

                          3       1    1s                1.767997       1.092751

                          4       1    1s                0.511818       0.431268

                          5       1    1s                0.201675       0.214486

                          6       1    1px               2.124086       3.655151
                          6       1    1py               2.124086       3.655151
                          6       1    1pz               2.124086       3.655151

                          7       1    1px               1.073681       1.557881
                          7       1    1py               1.073681       1.557881
                          7       1    1pz               1.073681       1.557881

                          8       1    1px               0.568387       0.703469
                          8       1    1py               0.568387       0.703469
                          8       1    1pz               0.568387       0.703469

                          9       1    1dx2              0.928338       1.445092
                          9       1    1dxy              0.928338       2.502973
                          9       1    1dxz              0.928338       2.502973
                          9       1    1dy2              0.928338       1.445092
                          9       1    1dyz              0.928338       2.502973
                          9       1    1dz2              0.928338       1.445092

                         10       1    1dx2              0.495830       0.482216
                         10       1    1dxy              0.495830       0.835223
                         10       1    1dxz              0.495830       0.835223
                         10       1    1dy2              0.495830       0.482216
                         10       1    1dyz              0.495830       0.835223
                         10       1    1dz2              0.495830       0.482216

                         11       1    1fx3              1.207348       2.249456
                         11       1    1fx2y             1.207348       5.029937
                         11       1    1fx2z             1.207348       5.029937
                         11       1    1fxy2             1.207348       5.029937
                         11       1    1fxyz             1.207348       8.712106
                         11       1    1fxz2             1.207348       5.029937
                         11       1    1fy3              1.207348       2.249456
                         11       1    1fy2z             1.207348       5.029937
                         11       1    1fyz2             1.207348       5.029937
                         11       1    1fz3              1.207348       2.249456

                         12       1    1s         

     AE Potential information for                                            ALL

       Description:                                       All-electron potential
                                          Krack, Parrinello, PCCP 2, 2105 (2000)

       Gaussian exponent of the core charge distribution:              12.500000
       Electronic configuration (s p d ...):                           1   0   0


 MOLECULE KIND INFORMATION


 All atoms are their own molecule, skipping detailed information


 TOTAL NUMBERS AND MAXIMUM NUMBERS

  Total number of            - Atomic kinds:                                   2
                             - Atoms:                                        216
                             - Shell sets:                                  3348
                             - Shells:                                      3348
                             - Primitive Cartesian functions:               3888
                             - Cartesian basis functions:                   9180
                             - Spherical basis functions:                   8100

  Maximum angular momentum of the orbital basis functions:                     3


 MODULE QUICKSTEP:  ATOMIC COORDINATES IN angstrom

  Atom  Kind  Element       X           Y           Z          Z(eff)       Mass

       1     1 Li   3    0.000000    0.000000    0.000000      3.0000       6.9410
       2     1 Li   3    2.042000    2.042000    0.000000      3.0000       6.9410
       3     1 Li   3    2.042000    0.000000    2.042000      3.0000       6.9410
       4     1 Li   3    0.000000    2.042000    2.042000      3.0000       6.9410
       5     2 H    1    0.000000    2.042000    0.000000      1.0000       1.0079
       6     2 H    1    0.000000    0.000000    2.042000      1.0000       1.0079
       7     2 H    1    2.042000    0.000000    0.000000      1.0000       1.0079
       8     2 H    1    2.042000    2.042000    2.042000      1.0000       1.0079
       9     1 Li   3    0.000000    0.000000    4.084000      3.0000       6.9410
      10     1 Li   3    2.042000    2.042000    4.084000      3.0000       6.9410
      11     1 Li   3    2.042000    0.000000    6.126000      3.0000       6.9410
      12     1 Li   3    0.000000    2.042000    6.126000      3.0000       6.9410
      13     2 H    1    0.000000    2.042000    4.084000      1.0000       1.0079
      14     2 H    1    0.000000    0.000000    6.126000      1.0000       1.0079
      15     2 H    1    2.042000    0.000000    4.084000      1.0000       1.0079
      16     2 H    1    2.042000    2.042000    6.126000      1.0000       1.0079
      17     1 Li   3    0.000000    0.000000    8.168000      3.0000       6.9410
      18     1 Li   3    2.042000    2.042000    8.168000      3.0000       6.9410
      19     1 Li   3    2.042000    0.000000   10.210000      3.0000       6.9410
      20     1 Li   3    0.000000    2.042000   10.210000      3.0000       6.9410
      21     2 H    1    0.000000    2.042000    8.168000      1.0000       1.0079
      22     2 H    1    0.000000    0.000000   10.210000      1.0000       1.0079
      23     2 H    1    2.042000    0.000000    8.168000      1.0000       1.0079
      24     2 H    1    2.042000    2.042000   10.210000      1.0000       1.0079
      25     1 Li   3    0.000000    4.084000    0.000000      3.0000       6.9410
      26     1 Li   3    2.042000    6.126000    0.000000      3.0000       6.9410
      27     1 Li   3    2.042000    4.084000    2.042000      3.0000       6.9410
      28     1 Li   3    0.000000    6.126000    2.042000      3.0000       6.9410
      29     2 H    1    0.000000    6.126000    0.000000      1.0000       1.0079
      30     2 H    1    0.000000    4.084000    2.042000      1.0000       1.0079
      31     2 H    1    2.042000    4.084000    0.000000      1.0000       1.0079
      32     2 H    1    2.042000    6.126000    2.042000      1.0000       1.0079
      33     1 Li   3    0.000000    4.084000    4.084000      3.0000       6.9410
      34     1 Li   3    2.042000    6.126000    4.084000      3.0000       6.9410
      35     1 Li   3    2.042000    4.084000    6.126000      3.0000       6.9410
      36     1 Li   3    0.000000    6.126000    6.126000      3.0000       6.9410
      37     2 H    1    0.000000    6.126000    4.084000      1.0000       1.0079
      38     2 H    1    0.000000    4.084000    6.126000      1.0000       1.0079
      39     2 H    1    2.042000    4.084000    4.084000      1.0000       1.0079
      40     2 H    1    2.042000    6.126000    6.126000      1.0000       1.0079
      41     1 Li   3    0.000000    4.084000    8.168000      3.0000       6.9410
      42     1 Li   3    2.042000    6.126000    8.168000      3.0000       6.9410
      43     1 Li   3    2.042000    4.084000   10.210000      3.0000       6.9410
      44     1 Li   3    0.000000    6.126000   10.210000      3.0000       6.9410
      45     2 H    1    0.000000    6.126000    8.168000      1.0000       1.0079
      46     2 H    1    0.000000    4.084000   10.210000      1.0000       1.0079
      47     2 H    1    2.042000    4.084000    8.168000      1.0000       1.0079
      48     2 H    1    2.042000    6.126000   10.210000      1.0000       1.0079
      49     1 Li   3    0.000000    8.168000    0.000000      3.0000       6.9410
      50     1 Li   3    2.042000   10.210000    0.000000      3.0000       6.9410
      51     1 Li   3    2.042000    8.168000    2.042000      3.0000       6.9410
      52     1 Li   3    0.000000   10.210000    2.042000      3.0000       6.9410
      53     2 H    1    0.000000   10.210000    0.000000      1.0000       1.0079
      54     2 H    1    0.000000    8.168000    2.042000      1.0000       1.0079
      55     2 H    1    2.042000    8.168000    0.000000      1.0000       1.0079
      56     2 H    1    2.042000   10.210000    2.042000      1.0000       1.0079
      57     1 Li   3    0.000000    8.168000    4.084000      3.0000       6.9410
      58     1 Li   3    2.042000   10.210000    4.084000      3.0000       6.9410
      59     1 Li   3    2.042000    8.168000    6.126000      3.0000       6.9410
      60     1 Li   3    0.000000   10.210000    6.126000      3.0000       6.9410
      61     2 H    1    0.000000   10.210000    4.084000      1.0000       1.0079
      62     2 H    1    0.000000    8.168000    6.126000      1.0000       1.0079
      63     2 H    1    2.042000    8.168000    4.084000      1.0000       1.0079
      64     2 H    1    2.042000   10.210000    6.126000      1.0000       1.0079
      65     1 Li   3    0.000000    8.168000    8.168000      3.0000       6.9410
      66     1 Li   3    2.042000   10.210000    8.168000      3.0000       6.9410
      67     1 Li   3    2.042000    8.168000   10.210000      3.0000       6.9410
      68     1 Li   3    0.000000   10.210000   10.210000      3.0000       6.9410
      69     2 H    1    0.000000   10.210000    8.168000      1.0000       1.0079
      70     2 H    1    0.000000    8.168000   10.210000      1.0000       1.0079
      71     2 H    1    2.042000    8.168000    8.168000      1.0000       1.0079
      72     2 H    1    2.042000   10.210000   10.210000      1.0000       1.0079
      73     1 Li   3    4.084000    0.000000    0.000000      3.0000       6.9410
      74     1 Li   3    6.126000    2.042000    0.000000      3.0000       6.9410
      75     1 Li   3    6.126000    0.000000    2.042000      3.0000       6.9410
      76     1 Li   3    4.084000    2.042000    2.042000      3.0000       6.9410
      77     2 H    1    4.084000    2.042000    0.000000      1.0000       1.0079
      78     2 H    1    4.084000    0.000000    2.042000      1.0000       1.0079
      79     2 H    1    6.126000    0.000000    0.000000      1.0000       1.0079
      80     2 H    1    6.126000    2.042000    2.042000      1.0000       1.0079
      81     1 Li   3    4.084000    0.000000    4.084000      3.0000       6.9410
      82     1 Li   3    6.126000    2.042000    4.084000      3.0000       6.9410
      83     1 Li   3    6.126000    0.000000    6.126000      3.0000       6.9410
      84     1 Li   3    4.084000    2.042000    6.126000      3.0000       6.9410
      85     2 H    1    4.084000    2.042000    4.084000      1.0000       1.0079
      86     2 H    1    4.084000    0.000000    6.126000      1.0000       1.0079
      87     2 H    1    6.126000    0.000000    4.084000      1.0000       1.0079
      88     2 H    1    6.126000    2.042000    6.126000      1.0000       1.0079
      89     1 Li   3    4.084000    0.000000    8.168000      3.0000       6.9410
      90     1 Li   3    6.126000    2.042000    8.168000      3.0000       6.9410
      91     1 Li   3    6.126000    0.000000   10.210000      3.0000       6.9410
      92     1 Li   3    4.084000    2.042000   10.210000      3.0000       6.9410
      93     2 H    1    4.084000    2.042000    8.168000      1.0000       1.0079
      94     2 H    1    4.084000    0.000000   10.210000      1.0000       1.0079
      95     2 H    1    6.126000    0.000000    8.168000      1.0000       1.0079
      96     2 H    1    6.126000    2.042000   10.210000      1.0000       1.0079
      97     1 Li   3    4.084000    4.084000    0.000000      3.0000       6.9410
      98     1 Li   3    6.126000    6.126000    0.000000      3.0000       6.9410
      99     1 Li   3    6.126000    4.084000    2.042000      3.0000       6.9410
     100     1 Li   3    4.084000    6.126000    2.042000      3.0000       6.9410
     101     2 H    1    4.084000    6.126000    0.000000      1.0000       1.0079
     102     2 H    1    4.084000    4.084000    2.042000      1.0000       1.0079
     103     2 H    1    6.126000    4.084000    0.000000      1.0000       1.0079
     104     2 H    1    6.126000    6.126000    2.042000      1.0000       1.0079
     105     1 Li   3    4.084000    4.084000    4.084000      3.0000       6.9410
     106     1 Li   3    6.126000    6.126000    4.084000      3.0000       6.9410
     107     1 Li   3    6.126000    4.084000    6.126000      3.0000       6.9410
     108     1 Li   3    4.084000    6.126000    6.126000      3.0000       6.9410
     109     2 H    1    4.084000    6.126000    4.084000      1.0000       1.0079
     110     2 H    1    4.084000    4.084000    6.126000      1.0000       1.0079
     111     2 H    1    6.126000    4.084000    4.084000      1.0000       1.0079
     112     2 H    1    6.126000    6.126000    6.126000      1.0000       1.0079
     113     1 Li   3    4.084000    4.084000    8.168000      3.0000       6.9410
     114     1 Li   3    6.126000    6.126000    8.168000      3.0000       6.9410
     115     1 Li   3    6.126000    4.084000   10.210000      3.0000       6.9410
     116     1 Li   3    4.084000    6.126000   10.210000      3.0000       6.9410
     117     2 H    1    4.084000    6.126000    8.168000      1.0000       1.0079
     118     2 H    1    4.084000    4.084000   10.210000      1.0000       1.0079
     119     2 H    1    6.126000    4.084000    8.168000      1.0000       1.0079
     120     2 H    1    6.126000    6.126000   10.210000      1.0000       1.0079
     121     1 Li   3    4.084000    8.168000    0.000000      3.0000       6.9410
     122     1 Li   3    6.126000   10.210000    0.000000      3.0000       6.9410
     123     1 Li   3    6.126000    8.168000    2.042000      3.0000       6.9410
     124     1 Li   3    4.084000   10.210000    2.042000      3.0000       6.9410
     125     2 H    1    4.084000   10.210000    0.000000      1.0000       1.0079
     126     2 H    1    4.084000    8.168000    2.042000      1.0000       1.0079
     127     2 H    1    6.126000    8.168000    0.000000      1.0000       1.0079
     128     2 H    1    6.126000   10.210000    2.042000      1.0000       1.0079
     129     1 Li   3    4.084000    8.168000    4.084000      3.0000       6.9410
     130     1 Li   3    6.126000   10.210000    4.084000      3.0000       6.9410
     131     1 Li   3    6.126000    8.168000    6.126000      3.0000       6.9410
     132     1 Li   3    4.084000   10.210000    6.126000      3.0000       6.9410
     133     2 H    1    4.084000   10.210000    4.084000      1.0000       1.0079
     134     2 H    1    4.084000    8.168000    6.126000      1.0000       1.0079
     135     2 H    1    6.126000    8.168000    4.084000      1.0000       1.0079
     136     2 H    1    6.126000   10.210000    6.126000      1.0000       1.0079
     137     1 Li   3    4.084000    8.168000    8.168000      3.0000       6.9410
     138     1 Li   3    6.126000   10.210000    8.168000      3.0000       6.9410
     139     1 Li   3    6.126000    8.168000   10.210000      3.0000       6.9410
     140     1 Li   3    4.084000   10.210000   10.210000      3.0000       6.9410
     141     2 H    1    4.084000   10.210000    8.168000      1.0000       1.0079
     142     2 H    1    4.084000    8.168000   10.210000      1.0000       1.0079
     143     2 H    1    6.126000    8.168000    8.168000      1.0000       1.0079
     144     2 H    1    6.126000   10.210000   10.210000      1.0000       1.0079
     145     1 Li   3    8.168000    0.000000    0.000000      3.0000       6.9410
     146     1 Li   3   10.210000    2.042000    0.000000      3.0000       6.9410
     147     1 Li   3   10.210000    0.000000    2.042000      3.0000       6.9410
     148     1 Li   3    8.168000    2.042000    2.042000      3.0000       6.9410
     149     2 H    1    8.168000    2.042000    0.000000      1.0000       1.0079
     150     2 H    1    8.168000    0.000000    2.042000      1.0000       1.0079
     151     2 H    1   10.210000    0.000000    0.000000      1.0000       1.0079
     152     2 H    1   10.210000    2.042000    2.042000      1.0000       1.0079
     153     1 Li   3    8.168000    0.000000    4.084000      3.0000       6.9410
     154     1 Li   3   10.210000    2.042000    4.084000      3.0000       6.9410
     155     1 Li   3   10.210000    0.000000    6.126000      3.0000       6.9410
     156     1 Li   3    8.168000    2.042000    6.126000      3.0000       6.9410
     157     2 H    1    8.168000    2.042000    4.084000      1.0000       1.0079
     158     2 H    1    8.168000    0.000000    6.126000      1.0000       1.0079
     159     2 H    1   10.210000    0.000000    4.084000      1.0000       1.0079
     160     2 H    1   10.210000    2.042000    6.126000      1.0000       1.0079
     161     1 Li   3    8.168000    0.000000    8.168000      3.0000       6.9410
     162     1 Li   3   10.210000    2.042000    8.168000      3.0000       6.9410
     163     1 Li   3   10.210000    0.000000   10.210000      3.0000       6.9410
     164     1 Li   3    8.168000    2.042000   10.210000      3.0000       6.9410
     165     2 H    1    8.168000    2.042000    8.168000      1.0000       1.0079
     166     2 H    1    8.168000    0.000000   10.210000      1.0000       1.0079
     167     2 H    1   10.210000    0.000000    8.168000      1.0000       1.0079
     168     2 H    1   10.210000    2.042000   10.210000      1.0000       1.0079
     169     1 Li   3    8.168000    4.084000    0.000000      3.0000       6.9410
     170     1 Li   3   10.210000    6.126000    0.000000      3.0000       6.9410
     171     1 Li   3   10.210000    4.084000    2.042000      3.0000       6.9410
     172     1 Li   3    8.168000    6.126000    2.042000      3.0000       6.9410
     173     2 H    1    8.168000    6.126000    0.000000      1.0000       1.0079
     174     2 H    1    8.168000    4.084000    2.042000      1.0000       1.0079
     175     2 H    1   10.210000    4.084000    0.000000      1.0000       1.0079
     176     2 H    1   10.210000    6.126000    2.042000      1.0000       1.0079
     177     1 Li   3    8.168000    4.084000    4.084000      3.0000       6.9410
     178     1 Li   3   10.210000    6.126000    4.084000      3.0000       6.9410
     179     1 Li   3   10.210000    4.084000    6.126000      3.0000       6.9410
     180     1 Li   3    8.168000    6.126000    6.126000      3.0000       6.9410
     181     2 H    1    8.168000    6.126000    4.084000      1.0000       1.0079
     182     2 H    1    8.168000    4.084000    6.126000      1.0000       1.0079
     183     2 H    1   10.210000    4.084000    4.084000      1.0000       1.0079
     184     2 H    1   10.210000    6.126000    6.126000      1.0000       1.0079
     185     1 Li   3    8.168000    4.084000    8.168000      3.0000       6.9410
     186     1 Li   3   10.210000    6.126000    8.168000      3.0000       6.9410
     187     1 Li   3   10.210000    4.084000   10.210000      3.0000       6.9410
     188     1 Li   3    8.168000    6.126000   10.210000      3.0000       6.9410
     189     2 H    1    8.168000    6.126000    8.168000      1.0000       1.0079
     190     2 H    1    8.168000    4.084000   10.210000      1.0000       1.0079
     191     2 H    1   10.210000    4.084000    8.168000      1.0000       1.0079
     192     2 H    1   10.210000    6.126000   10.210000      1.0000       1.0079
     193     1 Li   3    8.168000    8.168000    0.000000      3.0000       6.9410
     194     1 Li   3   10.210000   10.210000    0.000000      3.0000       6.9410
     195     1 Li   3   10.210000    8.168000    2.042000      3.0000       6.9410
     196     1 Li   3    8.168000   10.210000    2.042000      3.0000       6.9410
     197     2 H    1    8.168000   10.210000    0.000000      1.0000       1.0079
     198     2 H    1    8.168000    8.168000    2.042000      1.0000       1.0079
     199     2 H    1   10.210000    8.168000    0.000000      1.0000       1.0079
     200     2 H    1   10.210000   10.210000    2.042000      1.0000       1.0079
     201     1 Li   3    8.168000    8.168000    4.084000      3.0000       6.9410
     202     1 Li   3   10.210000   10.210000    4.084000      3.0000       6.9410
     203     1 Li   3   10.210000    8.168000    6.126000      3.0000       6.9410
     204     1 Li   3    8.168000   10.210000    6.126000      3.0000       6.9410
     205     2 H    1    8.168000   10.210000    4.084000      1.0000       1.0079
     206     2 H    1    8.168000    8.168000    6.126000      1.0000       1.0079
     207     2 H    1   10.210000    8.168000    4.084000      1.0000       1.0079
     208     2 H    1   10.210000   10.210000    6.126000      1.0000       1.0079
     209     1 Li   3    8.168000    8.168000    8.168000      3.0000       6.9410
     210     1 Li   3   10.210000   10.210000    8.168000      3.0000       6.9410
     211     1 Li   3   10.210000    8.168000   10.210000      3.0000       6.9410
     212     1 Li   3    8.168000   10.210000   10.210000      3.0000       6.9410
     213     2 H    1    8.168000   10.210000    8.168000      1.0000       1.0079
     214     2 H    1    8.168000    8.168000   10.210000      1.0000       1.0079
     215     2 H    1   10.210000    8.168000    8.168000      1.0000       1.0079
     216     2 H    1   10.210000   10.210000   10.210000      1.0000       1.0079




 SCF PARAMETERS         Density guess:                                   RESTART
                        --------------------------------------------------------
                        max_scf:                                              20
                        max_scf_history:                                       0
                        max_diis:                                              4
                        --------------------------------------------------------
                        eps_scf:                                        1.00E-06
                        eps_scf_history:                                0.00E+00
                        eps_diis:                                       1.00E-01
                        eps_eigval:                                     1.00E-05
                        --------------------------------------------------------
                        level_shift [a.u.]:                                 0.00
                        --------------------------------------------------------
                        No outer SCF

 PW_GRID| Information for grid number                                          1
 PW_GRID| Grid distributed over                                  2048 processors
 PW_GRID| Real space group dimensions                                    32   64
 PW_GRID| the grid is blocked:                                               YES
 PW_GRID| Cutoff [a.u.]                                                    150.0
 PW_GRID| spherical cutoff:                                                   NO
 PW_GRID|   Bounds   1            -64      63                Points:         128
 PW_GRID|   Bounds   2            -64      63                Points:         128
 PW_GRID|   Bounds   3            -64      63                Points:         128
 PW_GRID| Volume element (a.u.^3)  0.5918E-02     Volume (a.u.^3)     12411.3085
 PW_GRID| Grid span                                                    FULLSPACE
 PW_GRID|   Distribution                         Average         Max         Min
 PW_GRID|   G-Vectors                             1024.0        1024        1024
 PW_GRID|   G-Rays                                   8.0           8           8
 PW_GRID|   Real Space Points                     1024.0        1024        1024

 PW_GRID| Information for grid number                                          2
 PW_GRID| Number of the reference grid                                         1
 PW_GRID| Grid distributed over                                  2048 processors
 PW_GRID| Real space group dimensions                                    32   64
 PW_GRID| the grid is blocked:                                                NO
 PW_GRID| Cutoff [a.u.]                                                     50.0
 PW_GRID| spherical cutoff:                                                   NO
 PW_GRID|   Bounds   1            -37      37                Points:          75
 PW_GRID|   Bounds   2            -37      37                Points:          75
 PW_GRID|   Bounds   3            -37      37                Points:          75
 PW_GRID| Volume element (a.u.^3)  0.2942E-01     Volume (a.u.^3)     12411.3085
 PW_GRID| Grid span                                                    FULLSPACE
 PW_GRID|   Distribution                         Average         Max         Min
 PW_GRID|   G-Vectors                              206.0         600           0
 PW_GRID|   G-Rays                                   2.7           8           0
 PW_GRID|   Real Space Points                      206.0         450         150

 PW_GRID| Information for grid number                                          3
 PW_GRID| Number of the reference grid                                         1
 PW_GRID| Grid distributed over                                  2048 processors
 PW_GRID| Real space group dimensions                                    32   64
 PW_GRID| the grid is blocked:                                                NO
 PW_GRID| Cutoff [a.u.]                                                     16.7
 PW_GRID| spherical cutoff:                                                   NO
 PW_GRID|   Bounds   1            -22      22                Points:          45
 PW_GRID|   Bounds   2            -22      22                Points:          45
 PW_GRID|   Bounds   3            -22      22                Points:          45
 PW_GRID| Volume element (a.u.^3)  0.1362         Volume (a.u.^3)     12411.3085
 PW_GRID| Grid span                                                    FULLSPACE
 PW_GRID|   Distribution                         Average         Max         Min
 PW_GRID|   G-Vectors                               44.5         360           0
 PW_GRID|   G-Rays                                   1.0           8           0
 PW_GRID|   Real Space Points                       44.5          90           0

 PW_GRID| Information for grid number                                          4
 PW_GRID| Number of the reference grid                                         1
 PW_GRID| Grid distributed over                                  2048 processors
 PW_GRID| Real space group dimensions                                    32   64
 PW_GRID| the grid is blocked:                                                NO
 PW_GRID| Cutoff [a.u.]                                                      5.6
 PW_GRID| spherical cutoff:                                                   NO
 PW_GRID|   Bounds   1            -12      12                Points:          25
 PW_GRID|   Bounds   2            -12      12                Points:          25
 PW_GRID|   Bounds   3            -12      12                Points:          25
 PW_GRID| Volume element (a.u.^3)  0.7943         Volume (a.u.^3)     12411.3085
 PW_GRID| Grid span                                                    FULLSPACE
 PW_GRID|   Distribution                         Average         Max         Min
 PW_GRID|   G-Vectors                                7.6         200           0
 PW_GRID|   G-Rays                                   0.3           8           0
 PW_GRID|   Real Space Points                        7.6          25           0

 POISSON| Solver                                                        PERIODIC
 POISSON| Periodicity                                                        XYZ

 RS_GRID| Information for grid number                                          1
 RS_GRID|   Bounds   1            -64      63                Points:         128
 RS_GRID|   Bounds   2            -64      63                Points:         128
 RS_GRID|   Bounds   3            -64      63                Points:         128
 RS_GRID| Real space distribution over                                  8 groups
 RS_GRID| Real space distribution along direction                              1
 RS_GRID| Border size                                                         25
 RS_GRID| Real space distribution over                                 16 groups
 RS_GRID| Real space distribution along direction                              2
 RS_GRID| Border size                                                         25
 RS_GRID| Real space distribution over                                 16 groups
 RS_GRID| Real space distribution along direction                              3
 RS_GRID| Border size                                                         25
 RS_GRID|   Distribution                         Average         Max         Min
 RS_GRID|   Planes                                  66.0          66          66
 RS_GRID|   Distribution                         Average         Max         Min
 RS_GRID|   Planes                                  58.0          58          58
 RS_GRID|   Distribution                         Average         Max         Min
 RS_GRID|   Planes                                  58.0          58          58

 RS_GRID| Information for grid number                                          2
 RS_GRID|   Bounds   1            -37      37                Points:          75
 RS_GRID|   Bounds   2            -37      37                Points:          75
 RS_GRID|   Bounds   3            -37      37                Points:          75
 RS_GRID| Real space distribution over                                  8 groups
 RS_GRID| Real space distribution along direction                              1
 RS_GRID| Border size                                                         25
 RS_GRID| Real space distribution over                                 16 groups
 RS_GRID| Real space distribution along direction                              2
 RS_GRID| Border size                                                         25
 RS_GRID| Real space distribution over                                 16 groups
 RS_GRID| Real space distribution along direction                              3
 RS_GRID| Border size                                                         25
 RS_GRID|   Distribution                         Average         Max         Min
 RS_GRID|   Planes                                  59.4          60          59
 RS_GRID|   Distribution                         Average         Max         Min
 RS_GRID|   Planes                                  54.7          55          54
 RS_GRID|   Distribution                         Average         Max         Min
 RS_GRID|   Planes                                  54.7          55          54

 RS_GRID| Information for grid number                                          3
 RS_GRID|   Bounds   1            -22      22                Points:          45
 RS_GRID|   Bounds   2            -22      22                Points:          45
 RS_GRID|   Bounds   3            -22      22                Points:          45
 RS_GRID| Real space fully replicated
 RS_GRID| Group size                                                           1

 RS_GRID| Information for grid number                                          4
 RS_GRID|   Bounds   1            -12      12                Points:          25
 RS_GRID|   Bounds   2            -12      12                Points:          25
 RS_GRID|   Bounds   3            -12      12                Points:          25
 RS_GRID| Real space fully replicated
 RS_GRID| Group size                                                           1

  HFX_INFO| Replica ID:                                                        1
  HFX_INFO| FRACTION:                                               1.0000000000
  HFX_INFO| Interaction Potential:                                     TRUNCATED
  HFX_INFO| Cutoff Radius [angstrom]:                               6.0000000000
  HFX_INFO| EPS_SCHWARZ:                                                 1.0E-09
  HFX_INFO| EPS_SCHWARZ_FORCES                                           1.0E-09
  HFX_INFO| EPS_STORAGE_SCALING:                                         1.0E-01
  HFX_INFO| NBINS:                                                            64
  HFX_INFO| BLOCK_SIZE:                                                        1
  HFX_INFO| NUMBER_OF_SHELLS:                                               AUTO
  HFX_INFO| Number of periodic shells considered:                             -1
  HFX_INFO| Number of periodic cells considered:                              27


 Number of electrons:                                                        432
 Number of occupied orbitals:                                                216
 Number of molecular orbitals:                                               216

 Number of orbital functions:                                               8100
 Number of independent orbital functions:                                   8100

 Extrapolation method: initial_guess


 SCF WAVEFUNCTION OPTIMIZATION

  ----------------------------------- OT ---------------------------------------
  Minimizer      : CG                  : conjugate gradient
  Preconditioner : FULL_ALL            : diagonalization, state selective
  Precond_solver : DEFAULT
  Line search    : 2PNT                : 2 energies, one gradient
  stepsize       :    0.15000000                  energy_gap     :    0.08000000
  eps_taylor     :   0.10000E-15                  max_taylor     :             4
  ----------------------------------- OT ---------------------------------------

  Step     Update method      Time    Convergence         Total energy    Change
  ------------------------------------------------------------------------------

  HFX_MEM_INFO| Est. max. program size before HFX [MiB]:                     383
  HFX_MEM_INFO| Number of cart. primitive ERI's calculated:       18728082069295
  HFX_MEM_INFO| Number of sph. ERI's calculated:                   4747425803902
  HFX_MEM_INFO| Number of sph. ERI's stored in-core:               3559832631419
  HFX_MEM_INFO| Number of sph. ERI's stored on disk:                           0
  HFX_MEM_INFO| Number of sph. ERI's calculated on the fly:                    0
  HFX_MEM_INFO| Total memory consumption ERI's RAM [MiB]:                3875068
  HFX_MEM_INFO| Whereof max-vals [MiB]:                                    60068
  HFX_MEM_INFO| Total compression factor ERI's RAM:                         7.01
  HFX_MEM_INFO| Total memory consumption ERI's disk [MiB]:                     0
  HFX_MEM_INFO| Total compression factor ERI's disk:                        0.00
  HFX_MEM_INFO| Size of density/Fock matrix [MiB]:                           502
  HFX_MEM_INFO| Size of buffers [MiB]:                                        66
  HFX_MEM_INFO| Number of periodic image cells considered:                    27
  HFX_MEM_INFO| Est. max. program size after HFX  [MiB]:                    3167

     1 OT CG       0.15E+00  162.3     0.03410162      -870.3838135131 -8.70E+02
     2 OT LS       0.15E-02    7.5                   201817.0851891514
     3 OT CG       0.15E-02    7.1   124.43387023      1420.7637194895  2.29E+03
     4 OT LS       0.74E-03    7.1                   630954.2006674467
     5 OT CG       0.74E-03    7.3   973.05307898    648531.5787733824  6.47E+05
     6 OT LS       0.37E-03    7.0                   453804.5586478239
     7 OT CG       0.37E-03    7.6   641.61615744    521183.4489176916 -1.27E+05
     8 OT LS       0.18E-03    6.9                   460277.7115144491
     9 OT CG       0.18E-03    7.1   689.09516461    450151.2833358258 -7.10E+04
    10 OT LS       0.92E-04    6.9                   427640.4397707174
    11 OT CG       0.92E-04    7.0   653.52486878    431206.5260782855 -1.89E+04
    12 OT LS       0.46E-04    6.9                   415759.3719387986
    13 OT CG       0.46E-04    7.1   668.91772176    455326.9629240124  2.41E+04
    14 OT LS       0.23E-04    6.8                   406057.3446691582
    15 OT CG       0.23E-04    7.1   653.43542752    451362.2936459347 -3.96E+03
    16 OT LS       0.12E-04    6.8                   433770.9250092548
    17 OT CG       0.12E-04    7.1   623.15468946    459929.3440545643  8.57E+03
    18 OT LS       0.58E-05    7.0                   419660.0436209376
    19 OT CG       0.58E-05    7.0   646.94979656    442958.8162484744 -1.70E+04
    20 OT LS       0.29E-05    6.9                   415426.7157460157

  Leaving inner SCF loop after reaching    20 steps.


  Electronic density on regular grids:       -374.9810205196       57.0189794804
  Core density on regular grids:              432.0000000000       -0.0000000000
  Hard and soft densities (Lebedev):         -877.9414320082     -820.9985468019
  Total Rho_soft + Rho1_hard - Rho1_soft     -431.9239057259
  Total charge density (r-space):               0.0760942741
  Total Rho_soft + Rho0_soft (g-space):         0.0480200851

  Overlap energy of the core charge distribution:               0.00000000000000
  Self energy of the core charge distribution:               -837.82153156841810
  Core Hamiltonian energy:                                 415691.07337483199080
  Hartree energy:                                             476.39350886320489
  Exchange-correlation energy:                                  0.00000000000000
  Hartree-Fock Exchange energy:                              -226.91693887389911

  GAPW| Exc from hard and soft atomic rho1:                     0.00000000000000
  GAPW| local Eh = 1 center integrals:                        323.98733276277125

  Total energy:                                            415426.71574601565953

 *** WARNING in qs_scf.F:576 :: SCF run NOT converged ***


 !-----------------------------------------------------------------------------!
                     Mulliken Population Analysis

 #  Atom  Element  Kind  Atomic population                           Net charge
       1     Li       1          2.521709                              0.478291
       2     Li       1          1.915421                              1.084579
       3     Li       1          2.025354                              0.974646
       4     Li       1          2.315431                              0.684569
       5     H        2          0.884210                              0.115790
       6     H        2          0.935775                              0.064225
       7     H        2          0.961104                              0.038896
       8     H        2          0.790462                              0.209538
       9     Li       1          2.244776                              0.755224
      10     Li       1          1.634194                              1.365806
      11     Li       1          2.137878                              0.862122
      12     Li       1          2.033094                              0.966906
      13     H        2          0.770919                              0.229081
      14     H        2          1.106305                             -0.106305
      15     H        2          0.951056                              0.048944
      16     H        2          0.901269                              0.098731
      17     Li       1          2.559329                              0.440671
      18     Li       1          1.954999                              1.045001
      19     Li       1          2.112488                              0.887512
      20     Li       1          2.197951                              0.802049
      21     H        2          0.868127                              0.131873
      22     H        2          1.275193                             -0.275193
      23     H        2          1.025827                             -0.025827
      24     H        2          0.968656                              0.031344
      25     Li       1          1.870814                              1.129186
      26     Li       1          2.245711                              0.754289
      27     Li       1          1.748727                              1.251273
      28     Li       1          2.201124                              0.798876
      29     H        2          0.856909                              0.143091
      30     H        2          1.014674                             -0.014674
      31     H        2          0.855449                              0.144551
      32     H        2          0.845703                              0.154297
      33     Li       1          2.025142                              0.974858
      34     Li       1          1.995308                              1.004692
      35     Li       1          2.048254                              0.951746
      36     Li       1          2.663967                              0.336033
      37     H        2          0.914080                              0.085920
      38     H        2          0.871214                              0.128786
      39     H        2          0.844527                              0.155473
      40     H        2          0.913086                              0.086914
      41     Li       1          2.284140                              0.715860
      42     Li       1          2.117343                              0.882657
      43     Li       1          1.915226                              1.084774
      44     Li       1          2.730233                              0.269767
      45     H        2          1.310522                             -0.310522
      46     H        2          0.978707                              0.021293
      47     H        2          0.845933                              0.154067
      48     H        2          0.942975                              0.057025
      49     Li       1          2.727674                              0.272326
      50     Li       1          2.085593                              0.914407
      51     Li       1          2.086795                              0.913205
      52     Li       1          2.355068                              0.644932
      53     H        2          1.299761                             -0.299761
      54     H        2          0.848852                              0.151148
      55     H        2          0.833940                              0.166060
      56     H        2          0.845276                              0.154724
      57     Li       1          2.154281                              0.845719
      58     Li       1          2.166892                              0.833108
      59     Li       1          2.145794                              0.854206
      60     Li       1          2.533190                              0.466810
      61     H        2          0.970897                              0.029103
      62     H        2          1.153651                             -0.153651
      63     H        2          0.983697                              0.016303
      64     H        2          0.904110                              0.095890
      65     Li       1          3.633742                             -0.633742
      66     Li       1          2.011297                              0.988703
      67     Li       1          2.125987                              0.874013
      68     Li       1          3.171785                             -0.171785
      69     H        2          1.316127                             -0.316127
      70     H        2          1.344628                             -0.344628
      71     H        2          1.165372                             -0.165372
      72     H        2          1.115252                             -0.115252
      73     Li       1          2.191846                              0.808154
      74     Li       1          2.241814                              0.758186
      75     Li       1          2.153068                              0.846932
      76     Li       1          2.219768                              0.780232
      77     H        2          0.797553                              0.202447
      78     H        2          0.857564                              0.142436
      79     H        2          0.983416                              0.016584
      80     H        2          0.812651                              0.187349
      81     Li       1          2.195550                              0.804450
      82     Li       1          1.916301                              1.083699
      83     Li       1          2.050530                              0.949470
      84     Li       1          1.852476                              1.147524
      85     H        2          0.895633                              0.104367
      86     H        2          0.928110                              0.071890
      87     H        2          0.837711                              0.162289
      88     H        2          0.864514                              0.135486
      89     Li       1          2.093411                              0.906589
      90     Li       1          2.124436                              0.875564
      91     Li       1          2.313858                              0.686142
      92     Li       1          2.173280                              0.826720
      93     H        2          0.855512                              0.144488
      94     H        2          0.994101                              0.005899
      95     H        2          0.825545                              0.174455
      96     H        2          0.952492                              0.047508
      97     Li       1          2.071503                              0.928497
      98     Li       1          2.011365                              0.988635
      99     Li       1          1.970135                              1.029865
     100     Li       1          2.073574                              0.926426
     101     H        2          0.954156                              0.045844
     102     H        2          0.901048                              0.098952
     103     H        2          0.900985                              0.099015
     104     H        2          0.906411                              0.093589
     105     Li       1          1.991297                              1.008703
     106     Li       1          2.068621                              0.931379
     107     Li       1          2.180630                              0.819370
     108     Li       1          2.223991                              0.776009
     109     H        2          0.958776                              0.041224
     110     H        2          0.797834                              0.202166
     111     H        2          0.998026                              0.001974
     112     H        2          0.918630                              0.081370
     113     Li       1          2.090713                              0.909287
     114     Li       1          1.987353                              1.012647
     115     Li       1          2.036591                              0.963409
     116     Li       1          2.055489                              0.944511
     117     H        2          0.936643                              0.063357
     118     H        2          0.902668                              0.097332
     119     H        2          0.988951                              0.011049
     120     H        2          1.079269                             -0.079269
     121     Li       1          2.229481                              0.770519
     122     Li       1          2.327610                              0.672390
     123     Li       1          2.224698                              0.775302
     124     Li       1          2.042460                              0.957540
     125     H        2          1.021294                             -0.021294
     126     H        2          0.860074                              0.139926
     127     H        2          1.104624                             -0.104624
     128     H        2          0.951176                              0.048824
     129     Li       1          1.991165                              1.008835
     130     Li       1          2.085956                              0.914044
     131     Li       1          2.311024                              0.688976
     132     Li       1          2.023751                              0.976249
     133     H        2          1.007694                             -0.007694
     134     H        2          1.127000                             -0.127000
     135     H        2          1.195689                             -0.195689
     136     H        2          1.130684                             -0.130684
[...]
                               513  threads on              1  PE
                               516  threads on              1  PE
                               519  threads on              1  PE
                               522  threads on              1  PE
                               965  threads on              1  PE
Number of Cores per Socket:     64
Execution start time:  Mon Mar 28 15:44:19 2022
System name and speed:  nid004840  2.250 GHz (nominal)
AMD   Rome                 CPU  Family: 23  Model: 49  Stepping:  0
Core Performance Boost:  57304 PEs have CPB capability



Avg Process Time:      319.79 secs              
High Memory:      1,727,987.3 MiBytes     843.7 MiBytes per PE
I/O Read Rate:      20.864318 MiBytes/sec       
I/O Write Rate:      0.237576 MiBytes/sec       

Notes for table 1:

  This table shows functions that have significant exclusive sample
    hits, averaged across ranks.
  For further explanation, see the "General table notes" below,
    or use:  pat_report -v -O samp_profile ...

Table 1:  Profile by Function

  Samp% |     Samp |    Imb. |  Imb. | Group
        |          |    Samp | Samp% |  Function=[MAX10]
        |          |         |       |   PE=HIDE
        |          |         |       |    Thread=HIDE
       
 100.0% | 31,777.2 |      -- |    -- | Total
|-----------------------------------------------------------------------------
|  45.1% | 14,339.8 |      -- |    -- | USER
||----------------------------------------------------------------------------
||  16.4% |  5,216.6 |   312.4 |  5.7% | __hfx_energy_potential_MOD_update_fock_matrix.constprop.0
||   5.7% |  1,807.8 |   165.2 |  8.4% | __hfx_energy_potential_MOD_integrate_four_center._omp_fn.0
||   2.0% |    645.7 |   107.3 | 14.3% | __hfx_compression_methods_MOD_hfx_get_mult_cache_elements
||============================================================================
|  38.3% | 12,184.5 |      -- |    -- | ETC
||----------------------------------------------------------------------------
||  27.8% |  8,842.0 |   552.0 |  5.9% | BI_Srecv
||   3.0% |    940.4 |   537.6 | 36.4% | Cdgebr2d
||   2.3% |    722.0 | 1,519.0 | 67.8% | GOMP_parallel
||============================================================================
|  16.3% |  5,172.9 |      -- |    -- | MPI
||----------------------------------------------------------------------------
||   5.5% |  1,761.5 |    92.5 |  5.0% | MPI_ALLTOALLV
||   3.4% |  1,083.5 |   237.5 | 18.0% | MPI_WAITALL
||   3.0% |    945.7 |   510.3 | 35.1% | MPI_BARRIER
||   2.3% |    715.2 |   126.8 | 15.1% | MPI_ALLREDUCE
|=============================================================================

Notes for table 2:

  This table shows functions, and line numbers within functions, that
    have significant exclusive sample hits, averaged across ranks.
  For further explanation, see the "General table notes" below,
    or use:  pat_report -v -O samp_profile+src ...

Table 2:  Profile by Group, Function, and Line

  Samp% |     Samp |  Imb. |  Imb. | Group
        |          |  Samp | Samp% |  Function=[MAX10]
        |          |       |       |   Source
        |          |       |       |    Line
        |          |       |       |     PE=HIDE
        |          |       |       |      Thread=HIDE
       
 100.0% | 31,777.2 |    -- |    -- | Total
|-----------------------------------------------------------------------------
|  45.1% | 14,339.8 |    -- |    -- | USER
||----------------------------------------------------------------------------
||  16.4% |  5,216.6 |    -- |    -- | __hfx_energy_potential_MOD_update_fock_matrix.constprop.0
3|        |          |       |       |  CP2K/cp2k-8.2/src/hfx_energy_potential.F
||||--------------------------------------------------------------------------
4|||   2.6% |    816.4 | 104.6 | 11.4% | line.2580
4|||   2.8% |    889.2 | 102.8 | 10.4% | line.2603
4|||   1.7% |    541.0 | 103.0 | 16.0% | line.2626
4|||   1.0% |    309.7 |  85.3 | 21.6% | line.2637
4|||   2.4% |    760.2 | 118.8 | 13.5% | line.2649
||||==========================================================================
||   5.7% |  1,807.8 |    -- |    -- | __hfx_energy_potential_MOD_integrate_four_center._omp_fn.0
3|   5.2% |  1,655.7 |    -- |    -- |  CP2K/cp2k-8.2/src/hfx_energy_potential.F
||   2.0% |    645.7 |    -- |    -- | __hfx_compression_methods_MOD_hfx_get_mult_cache_elements
3|        |          |       |       |  CP2K/cp2k-8.2/src/hfx_compression_methods.F
4|   1.3% |    421.7 |  84.3 | 16.7% |   line.442
||============================================================================
|  38.3% | 12,184.5 |    -- |    -- | ETC
||----------------------------------------------------------------------------
||  27.8% |  8,842.0 | 552.0 |  5.9% | BI_Srecv
||   3.0% |    940.4 | 537.6 | 36.4% | Cdgebr2d
||   2.3% |    722.0 |    -- |    -- | GOMP_parallel
3|        |          |       |       |  ../cpe-gcc-11.2.0-202108140355.9bf1fd589a5c1/libgomp/parallel.c
4|   2.2% |    687.6 |  94.4 | 12.1% |   line.179
||============================================================================
|  16.3% |  5,172.9 |    -- |    -- | MPI
||----------------------------------------------------------------------------
||   5.5% |  1,761.5 |  92.5 |  5.0% | MPI_ALLTOALLV
||   3.4% |  1,083.5 | 237.5 | 18.0% | MPI_WAITALL
||   3.0% |    945.7 | 510.3 | 35.1% | MPI_BARRIER
||   2.3% |    715.2 | 126.8 | 15.1% | MPI_ALLREDUCE
|=============================================================================

Notes for table 3:

  This table shows functions that have the most significant exclusive
    time, taking for each thread the average time across ranks.
    The imbalance percentage is relative to the team observed to
    participate in execution.
    Use -s th=ALL to see individual thread values.
  For further explanation, see the "General table notes" below,
    or use:  pat_report -v -O profile_th_pe ...

Table 3:  Profile by Function Group and Function

  Samp% |     Samp |    Imb. |   Imb. | Team | Group
        |          |    Samp |  Samp% | Size |  Function=[MAX10]
        |          |         |        |      |   Thread=HIDE
        |          |         |        |      |    PE=HIDE
       
 100.0% | 31,777.2 |      -- |     -- |   -- | Total
|-----------------------------------------------------------------------------
|  45.1% | 14,339.8 |      -- |     -- |   -- | USER
||----------------------------------------------------------------------------
||  16.4% |  5,216.6 | 4,874.6 |  95.0% |   61 | __hfx_energy_potential_MOD_update_fock_matrix.constprop.0
||   5.7% |  1,807.8 | 1,695.5 |  95.3% |   61 | __hfx_energy_potential_MOD_integrate_four_center._omp_fn.0
||   2.0% |    645.7 |   603.3 |  95.0% |   61 | __hfx_compression_methods_MOD_hfx_get_mult_cache_elements
||============================================================================
|  38.3% | 12,184.5 |      -- |     -- |   -- | ETC
||----------------------------------------------------------------------------
||  27.8% |  8,842.0 |      -- |     -- |    1 | BI_Srecv
||   3.0% |    940.4 |      -- |     -- |    1 | Cdgebr2d
||   2.3% |    722.0 |   631.7 | 100.0% |    8 | GOMP_parallel
||============================================================================
|  16.3% |  5,172.9 |      -- |     -- |   -- | MPI
||----------------------------------------------------------------------------
||   5.5% |  1,761.5 |      -- |     -- |    1 | MPI_ALLTOALLV
||   3.4% |  1,083.5 |      -- |     -- |    1 | MPI_WAITALL
||   3.0% |    945.7 |      -- |     -- |    1 | MPI_BARRIER
||   2.3% |    715.2 |   635.7 | 100.0% |    9 | MPI_ALLREDUCE
|=============================================================================

Observation:  Metric-Based Rank Order

    When the use of a shared resource like memory bandwidth is unbalanced
    across nodes, total execution time may be reduced with a rank order
    that improves the balance.  The metric used here for resource usage
    is: USER Samp

    For each node, the metric values for the ranks on that node are
    summed.  The maximum and average value of those sums are shown below
    for both the current rank order and a custom rank order that seeks
    to reduce the maximum value.

    A file named MPICH_RANK_ORDER.USER_Samp was generated
    along with this report and contains usage instructions and the
    Custom rank order from the following table.

       Rank    Node Reduction    Maximum  Average
      Order  Metric    in Max      Value  Value
               Imb.     Value             

    Current  96.93%            5.662e+07  1.738e+06
     Custom   0.01%   96.931%  1.738e+06  1.738e+06


Notes for table 4:

  This table shows memory traffic for numa nodes, taking for each numa
    node the maximum value across nodes. It also shows the balance in
    memory traffic by showing the top 3 and bottom 3 node values.
  For further explanation, see the "General table notes" below,
    or use:  pat_report -v -O mem_bw ...

Table 4:  Memory Bandwidth by Numanode

  Memory |    Read |   Write |     Thread |  Memory |  Memory | Numanode
 Traffic |  Memory |  Memory |       Time | Traffic | Traffic |  Node Id=[max3,min3]
  GBytes | Traffic | Traffic |            |  GBytes |       / |   PE=HIDE
         |  GBytes |  GBytes |            |   / Sec | Nominal |    Thread=HIDE
         |         |         |            |         |    Peak | 
|-----------------------------------------------------------------------------
|  26,332 |  20,107 |   6,226 | 319.769408 |   82.35 |   40.2% | numanode.0
||----------------------------------------------------------------------------
||  26,332 |  20,107 |   6,226 | 319.769408 |   82.35 |   40.2% | nid.0
||  864.79 |  665.22 |  199.57 | 319.759680 |    2.70 |    1.3% | nid.4840
||  841.36 |  634.59 |  206.77 | 319.756504 |    2.63 |    1.3% | nid.4842
||  818.23 |  623.91 |  194.32 | 319.755372 |    2.56 |    1.2% | nid.4867
||  814.56 |  626.86 |  187.71 | 319.747529 |    2.55 |    1.2% | nid.4871
||  814.40 |  627.66 |  186.73 | 319.740031 |    2.55 |    1.2% | nid.4861
||============================================================================
|  27,375 |  20,884 |   6,491 | 319.773894 |   85.61 |   41.8% | numanode.1
||----------------------------------------------------------------------------
||  27,375 |  20,884 |   6,491 | 319.773894 |   85.61 |   41.8% | nid.0
||  853.12 |  639.18 |  213.95 | 319.761033 |    2.67 |    1.3% | nid.4886
||  847.74 |  631.75 |  216.00 | 319.754444 |    2.65 |    1.3% | nid.4859
||  819.83 |  624.56 |  195.27 | 319.752315 |    2.56 |    1.3% | nid.4873
||  817.09 |  622.76 |  194.33 | 319.763033 |    2.56 |    1.2% | nid.4894
||  816.12 |  623.09 |  193.03 | 319.760829 |    2.55 |    1.2% | nid.4854
||============================================================================
|  28,100 |  21,425 |   6,675 | 319.769611 |   87.88 |   42.9% | numanode.2
||----------------------------------------------------------------------------
||  28,100 |  21,425 |   6,675 | 319.769611 |   87.88 |   42.9% | nid.0
||  842.44 |  637.45 |  204.99 | 319.750028 |    2.63 |    1.3% | nid.4902
||  841.03 |  628.47 |  212.56 | 319.745369 |    2.63 |    1.3% | nid.4869
||  819.59 |  624.59 |  195.00 | 319.749183 |    2.56 |    1.3% | nid.4865
||  817.55 |  627.05 |  190.50 | 319.756404 |    2.56 |    1.2% | nid.4892
||  813.71 |  625.90 |  187.81 | 319.757020 |    2.54 |    1.2% | nid.4854
||============================================================================
|  28,164 |  21,479 |   6,685 | 319.772709 |   88.07 |   43.0% | numanode.3
||----------------------------------------------------------------------------
||  28,164 |  21,479 |   6,685 | 319.772709 |   88.07 |   43.0% | nid.0
||  841.05 |  633.52 |  207.53 | 319.744466 |    2.63 |    1.3% | nid.4902
||  835.36 |  629.88 |  205.48 | 319.750411 |    2.61 |    1.3% | nid.4859
||  819.95 |  627.76 |  192.19 | 319.748184 |    2.56 |    1.3% | nid.4861
||  817.81 |  629.58 |  188.23 | 319.749628 |    2.56 |    1.2% | nid.4846
||  815.04 |  624.66 |  190.38 | 319.742906 |    2.55 |    1.2% | nid.4848
||============================================================================
|  28,517 |  21,684 |   6,833 | 319.773450 |   89.18 |   43.5% | numanode.4
||----------------------------------------------------------------------------
||  28,517 |  21,684 |   6,833 | 319.773450 |   89.18 |   43.5% | nid.0
||  844.59 |  641.94 |  202.65 | 319.765066 |    2.64 |    1.3% | nid.4842
||  840.70 |  641.49 |  199.20 | 319.764318 |    2.63 |    1.3% | nid.4846
||  826.54 |  633.56 |  192.98 | 319.754668 |    2.58 |    1.3% | nid.4900
||  823.90 |  631.41 |  192.49 | 319.755685 |    2.58 |    1.3% | nid.4852
||  821.30 |  627.25 |  194.05 | 319.769620 |    2.57 |    1.3% | nid.4877
||============================================================================
|  28,352 |  21,588 |   6,765 | 319.773211 |   88.66 |   43.3% | numanode.5
||----------------------------------------------------------------------------
||  28,352 |  21,588 |   6,765 | 319.773211 |   88.66 |   43.3% | nid.0
||  856.73 |  635.97 |  220.76 | 319.764174 |    2.68 |    1.3% | nid.4886
||  855.82 |  637.50 |  218.31 | 319.757120 |    2.68 |    1.3% | nid.4902
||  823.79 |  629.90 |  193.89 | 319.761041 |    2.58 |    1.3% | nid.4892
||  821.98 |  629.60 |  192.38 | 319.756888 |    2.57 |    1.3% | nid.4850
||  820.84 |  628.04 |  192.79 | 319.751482 |    2.57 |    1.3% | nid.4890
||============================================================================
|  28,417 |  21,643 |   6,774 | 319.780433 |   88.86 |   43.4% | numanode.6
||----------------------------------------------------------------------------
||  28,417 |  21,643 |   6,774 | 319.780433 |   88.86 |   43.4% | nid.0
||  852.66 |  634.37 |  218.29 | 319.744129 |    2.67 |    1.3% | nid.4890
||  842.46 |  641.36 |  201.10 | 319.756441 |    2.63 |    1.3% | nid.4869
||  825.02 |  633.00 |  192.03 | 319.755401 |    2.58 |    1.3% | nid.4881
||  824.41 |  628.67 |  195.74 | 319.755087 |    2.58 |    1.3% | nid.4873
||  822.12 |  626.65 |  195.47 | 319.755525 |    2.57 |    1.3% | nid.4894
||============================================================================
|  20,621 |  15,652 |   4,969 | 319.780498 |   64.48 |   31.5% | numanode.7
||----------------------------------------------------------------------------
||  20,621 |  15,652 |   4,969 | 319.780498 |   64.48 |   31.5% | nid.0
||  810.12 |  616.36 |  193.75 | 319.766364 |    2.53 |    1.2% | nid.4842
||  807.69 |  611.24 |  196.45 | 319.763765 |    2.53 |    1.2% | nid.4883
||  204.47 |  156.42 |   48.05 | 319.764518 |    0.64 |    0.3% | nid.4845
||  203.17 |  155.13 |   48.04 | 319.759084 |    0.64 |    0.3% | nid.4878
||  201.96 |  154.90 |   47.06 | 319.780225 |    0.63 |    0.3% | nid.4855
|=============================================================================

Notes for table 5:

  This table shows energy and power usage for the nodes with the
    maximum, mean, and minimum usage, as well as the sum of usage over
    all nodes.
    Energy and power for accelerators is also shown, if applicable.
  For further explanation, see the "General table notes" below,
    or use:  pat_report -v -O program_energy ...

Table 5:  Program energy and power usage (from Cray PM)

      Node | Node Power |    Process | Node Id=[mmm]
    Energy |        (W) |       Time |  PE=HIDE
       (J) |            |            |   Thread=HIDE
          
 9,507,094 | 29,728.835 | 319.793695 | Total
|---------------------------------------------------
|   154,047 |    481.713 | 319.790115 | nid.4846
|   146,219 |    457.246 | 319.781727 | nid.4904
|   136,437 |    426.625 | 319.805819 | nid.4868
|===================================================

Notes for table 6:

  This table show the average time and number of bytes read from each
    input file, taking the average over the number of ranks that read
    from the file.  It also shows the number of read operations, and
    average rates.
  For further explanation, see the "General table notes" below,
    or use:  pat_report -v -O read_stats ...

Table 6:  File Input Stats by Filename

 Avg Read |  Avg Read |   Read Rate | Number |     Avg |     Bytes/ | File Name=!x/^/(proc|sys)/
 Time per |   MiBytes | MiBytes/sec |     of |   Reads |       Call |  PE=HIDE
   Reader |       per |             | Reader |     per |            | 
     Rank |    Reader |             |  Ranks |  Reader |            | 
          |      Rank |             |        |    Rank |            | 
|-----------------------------------------------------------------------------
| 0.263290 | 11.917282 |   45.262940 |      1 | 1,527.0 |   8,183.48 | ./t_c_g.dat
| 0.063360 | 13.385548 |  211.261530 |      1 |   108.0 | 129,960.78 | B88.wfn
| 0.023651 |  0.004263 |    0.180245 |      1 |     6.0 |     745.00 | ./BASIS_OPT
| 0.015330 |  0.258743 |   16.878188 |      1 |    38.0 |   7,139.79 | ./POTENTIAL
| 0.010674 |  0.005267 |    0.493452 |      1 |     3.0 |   1,841.00 | input_bulk_HFX_3.inp
|=============================================================================

Notes for table 7:

  This table show the average time and number of bytes written to each
    output file, taking the average over the number of ranks that
    wrote to the file.  It also shows the number of write operations,
    and average rates.
  For further explanation, see the "General table notes" below,
    or use:  pat_report -v -O write_stats ...

Table 7:  File Output Stats by Filename

      Avg |      Avg |  Write Rate | Number |   Avg Writes | Bytes/ | File Name=!x/^/(proc|sys)/
    Write |    Write | MiBytes/sec |     of |   per Writer |   Call |  PE=HIDE
 Time per |  MiBytes |             | Writer |         Rank |        | 
   Writer |      per |             |  Ranks |              |        | 
     Rank |   Writer |             |        |              |        | 
          |     Rank |             |        |              |        | 
|-----------------------------------------------------------------------------
| 4.341859 | 0.737718 |    0.169908 |  2,048 | 12,739,760.4 |   0.06 | _UnknownFile_
| 0.019149 | 0.298275 |   15.576861 |  2,048 |      4,240.4 |  73.76 | /dev/infiniband/rdma_cm
| 0.001281 | 0.162825 |  127.139796 |      1 |      2,560.0 |  66.69 | stdout
|=============================================================================

Table 8:  Lustre File Information

            File Path |    Stripe | Stripe | Stripe | OST list
                      |      size | offset |  count | 
--------------------------------------------------------------
 input_bulk_HFX_3.inp | 1,048,576 |      0 |      1 | 8
          ./BASIS_OPT | 1,048,576 |      0 |      1 | 6
          ./POTENTIAL | 1,048,576 |      0 |      1 | 10
              B88.wfn | 1,048,576 |      0 |      1 | 5
          ./t_c_g.dat | 1,048,576 |      0 |      1 | 1
==============================================================
Program invocation:
  /work/z19/z19/aturner/software/CP2K/cp2k-8.2/exe/ARCHER2/cp2k.psmp -i input_bulk_HFX_3.inp

For a complete report with expanded tables and notes, run:
  pat_report /mnt/lustre/a2fs-work2/work/z19/z19/aturner/benchmark/ofi-vs-ucx/CP2K/LiH_HFX/calc/OFI/cp2k.psmp+122934-4840s

For help identifying callers of particular functions:
  pat_report -O callers+src /mnt/lustre/a2fs-work2/work/z19/z19/aturner/benchmark/ofi-vs-ucx/CP2K/LiH_HFX/calc/OFI/cp2k.psmp+122934-4840s
To see the entire call tree:
  pat_report -O calltree+src /mnt/lustre/a2fs-work2/work/z19/z19/aturner/benchmark/ofi-vs-ucx/CP2K/LiH_HFX/calc/OFI/cp2k.psmp+122934-4840s

For interactive, graphical performance analysis, run:
  app2 /mnt/lustre/a2fs-work2/work/z19/z19/aturner/benchmark/ofi-vs-ucx/CP2K/LiH_HFX/calc/OFI/cp2k.psmp+122934-4840s

================  End of CrayPat-lite output  ==========================
