 DBCSR| CPU Multiplication driver                                           BLAS
 DBCSR| Multrec recursion limit                                              512
 DBCSR| Multiplication stack size                                           1000
 DBCSR| Maximum elements for images                                    UNLIMITED
 DBCSR| Multiplicative factor virtual images                                   1
 DBCSR| Use multiplication densification                                       T
 DBCSR| Multiplication size stacks                                             3
 DBCSR| Use memory pool for CPU allocation                                     F
 DBCSR| Number of 3D layers                                               SINGLE
 DBCSR| Use MPI memory allocation                                              F
 DBCSR| Use RMA algorithm                                                      F
 DBCSR| Use Communication thread                                               T
 DBCSR| Communication thread load                                             75
 DBCSR| MPI: My node id                                                        0
 DBCSR| MPI: Number of nodes                                                1024
 DBCSR| OMP: Current number of threads                                         4
 DBCSR| OMP: Max number of threads                                             4
 DBCSR| Split modifier for TAS multiplication algorithm                  1.0E+00


  **** **** ******  **  PROGRAM STARTED AT               2022-03-23 15:21:25.724
 ***** ** ***  *** **   PROGRAM STARTED ON                             nid001768
 **    ****   ******    PROGRAM STARTED BY                               aturner
 ***** **    ** ** **   PROGRAM PROCESS ID                                 18636
  **** **  *******  **  PROGRAM STARTED IN /mnt/lustre/a2fs-work2/work/z19/z19/a
                                           turner/benchmark/ofi-vs-ucx/CP2K/LiH_
                                           HFX/calc/OFI

 CP2K| version string:                                          CP2K version 8.2
 CP2K| source code revision number:                                  git:310b7ab
 CP2K| cp2kflags: omp libint fftw3 libxc elpa parallel mpi3 scalapack           
 CP2K| is freely available from                            https://www.cp2k.org/
 CP2K| Program compiled at                          Wed 23 Mar 12:19:29 GMT 2022
 CP2K| Program compiled on                                                  ln04
 CP2K| Program compiled for                                              ARCHER2
 CP2K| Data directory path                   /work/y07/shared/cp2k/cp2k-8.1/data
 CP2K| Input file name                                      input_bulk_HFX_3.inp

 GLOBAL| Force Environment number                                              1
 GLOBAL| Basis set file name                                         ./BASIS_OPT
 GLOBAL| Potential file name                                         ./POTENTIAL
 GLOBAL| MM Potential file name                                     MM_POTENTIAL
 GLOBAL| Coordinate file name                                      __STD_INPUT__
 GLOBAL| Method name                                                        CP2K
 GLOBAL| Project name                                                 LiH_bulk_3
 GLOBAL| Run type                                                         ENERGY
 GLOBAL| FFT library                                                       FFTW3
 GLOBAL| Diagonalization library                                            ELPA
 GLOBAL| Minimum number of eigenvectors for ELPA usage                        16
 GLOBAL| Orthonormality check for eigenvectors                          DISABLED
 GLOBAL| Matrix multiplication library                                    SCALAP
 GLOBAL| All-to-all communication in single precision                          F
 GLOBAL| FFTs using library dependent lengths                                  F
 GLOBAL| Grid backend                                                       AUTO
 GLOBAL| Global print level                                               MEDIUM
 GLOBAL| MPI I/O enabled                                                       T
 GLOBAL| Total number of message passing processes                          1024
 GLOBAL| Number of threads for this process                                    4
 GLOBAL| This output is from process                                           0
 GLOBAL| CPU model name                          AMD EPYC 7742 64-Core Processor
 GLOBAL| CPUID                                                              1002

 MEMORY| system memory details [Kb]
 MEMORY|                        rank 0           min           max       average
 MEMORY| MemTotal            263528088     263528084     263528088     263528086
 MEMORY| MemFree             246816260     245038080     248706020     246900336
 MEMORY| Buffers                 37112         25748         37112         32688
 MEMORY| Cached                1509752        715792       3040128       1730562
 MEMORY| Slab                  1711860       1505548       1819836       1680554
 MEMORY| SReclaimable           157168         82412        222652        140014
 MEMORY| MemLikelyFree       248520292     248286264     249530056     248803602


 *** Fundamental physical constants (SI units) ***

 *** Literature: B. J. Mohr and B. N. Taylor,
 ***             CODATA recommended values of the fundamental physical
 ***             constants: 2006, Web Version 5.1
 ***             http://physics.nist.gov/constants

 Speed of light in vacuum [m/s]                             2.99792458000000E+08
 Magnetic constant or permeability of vacuum [N/A**2]       1.25663706143592E-06
 Electric constant or permittivity of vacuum [F/m]          8.85418781762039E-12
 Planck constant (h) [J*s]                                  6.62606896000000E-34
 Planck constant (h-bar) [J*s]                              1.05457162825177E-34
 Elementary charge [C]                                      1.60217648700000E-19
 Electron mass [kg]                                         9.10938215000000E-31
 Electron g factor [ ]                                     -2.00231930436220E+00
 Proton mass [kg]                                           1.67262163700000E-27
 Fine-structure constant                                    7.29735253760000E-03
 Rydberg constant [1/m]                                     1.09737315685270E+07
 Avogadro constant [1/mol]                                  6.02214179000000E+23
 Boltzmann constant [J/K]                                   1.38065040000000E-23
 Atomic mass unit [kg]                                      1.66053878200000E-27
 Bohr radius [m]                                            5.29177208590000E-11

 *** Conversion factors ***

 [u] -> [a.u.]                                              1.82288848426455E+03
 [Angstrom] -> [Bohr] = [a.u.]                              1.88972613288564E+00
 [a.u.] = [Bohr] -> [Angstrom]                              5.29177208590000E-01
 [a.u.] -> [s]                                              2.41888432650478E-17
 [a.u.] -> [fs]                                             2.41888432650478E-02
 [a.u.] -> [J]                                              4.35974393937059E-18
 [a.u.] -> [N]                                              8.23872205491840E-08
 [a.u.] -> [K]                                              3.15774647902944E+05
 [a.u.] -> [kJ/mol]                                         2.62549961709828E+03
 [a.u.] -> [kcal/mol]                                       6.27509468713739E+02
 [a.u.] -> [Pa]                                             2.94210107994716E+13
 [a.u.] -> [bar]                                            2.94210107994716E+08
 [a.u.] -> [atm]                                            2.90362800883016E+08
 [a.u.] -> [eV]                                             2.72113838565563E+01
 [a.u.] -> [Hz]                                             6.57968392072181E+15
 [a.u.] -> [1/cm] (wave numbers)                            2.19474631370540E+05
 [a.u./Bohr**2] -> [1/cm]                                   5.14048714338585E+03
 

 CELL_TOP| Volume [angstrom^3]:                                      1839.166147
 CELL_TOP| Vector a [angstrom    12.252     0.000     0.000   |a| =    12.252000
 CELL_TOP| Vector b [angstrom     0.000    12.252     0.000   |b| =    12.252000
 CELL_TOP| Vector c [angstrom     0.000     0.000    12.252   |c| =    12.252000
 CELL_TOP| Angle (b,c), alpha [degree]:                                90.000000
 CELL_TOP| Angle (a,c), beta  [degree]:                                90.000000
 CELL_TOP| Angle (a,b), gamma [degree]:                                90.000000
 CELL_TOP| Numerically orthorhombic:                                         YES

 GENERATE|  Preliminary Number of Bonds generated:                             0
 GENERATE|  Achieved consistency in connectivity generation.

 CELL| Volume [angstrom^3]:                                          1839.166147
 CELL| Vector a [angstrom]:      12.252     0.000     0.000   |a| =    12.252000
 CELL| Vector b [angstrom]:       0.000    12.252     0.000   |b| =    12.252000
 CELL| Vector c [angstrom]:       0.000     0.000    12.252   |c| =    12.252000
 CELL| Angle (b,c), alpha [degree]:                                    90.000000
 CELL| Angle (a,c), beta  [degree]:                                    90.000000
 CELL| Angle (a,b), gamma [degree]:                                    90.000000
 CELL| Numerically orthorhombic:                                             YES

 CELL_REF| Volume [angstrom^3]:                                      1839.166147
 CELL_REF| Vector a [angstrom    12.252     0.000     0.000   |a| =    12.252000
 CELL_REF| Vector b [angstrom     0.000    12.252     0.000   |b| =    12.252000
 CELL_REF| Vector c [angstrom     0.000     0.000    12.252   |c| =    12.252000
 CELL_REF| Angle (b,c), alpha [degree]:                                90.000000
 CELL_REF| Angle (a,c), beta  [degree]:                                90.000000
 CELL_REF| Angle (a,b), gamma [degree]:                                90.000000
 CELL_REF| Numerically orthorhombic:                                         YES

 *******************************************************************************
 *******************************************************************************
 **                                                                           **
 **     #####                         ##              ##                      **
 **    ##   ##            ##          ##              ##                      **
 **   ##     ##                       ##            ######                    **
 **   ##     ##  ##   ##  ##   #####  ##  ##   ####   ##    #####    #####    **
 **   ##     ##  ##   ##  ##  ##      ## ##   ##      ##   ##   ##  ##   ##   **
 **   ##  ## ##  ##   ##  ##  ##      ####     ###    ##   ######   ######    **
 **    ##  ###   ##   ##  ##  ##      ## ##      ##   ##   ##       ##        **
 **     #######   #####   ##   #####  ##  ##  ####    ##    #####   ##        **
 **           ##                                                    ##        **
 **                                                                           **
 **                                                ... make the atoms dance   **
 **                                                                           **
 **            Copyright (C) by CP2K developers group (2000-2021)             **
 **                      J. Chem. Phys. 152, 194103 (2020)                    **
 **                                                                           **
 *******************************************************************************

 DFT| Spin restricted Kohn-Sham (RKS) calculation                            RKS
 DFT| Multiplicity                                                             1
 DFT| Number of spin states                                                    1
 DFT| Charge                                                                   0
 DFT| Self-interaction correction (SIC)                                       NO
 DFT| Cutoffs: density                                              1.000000E-10
 DFT|          gradient                                             1.000000E-10
 DFT|          tau                                                  1.000000E-10
 DFT|          cutoff_smoothing_range                               0.000000E+00
 DFT| XC density smoothing                                                  NONE
 DFT| XC derivatives                                                          PW
 FUNCTIONAL| NO EXCHANGE-CORRELATION FUNCTIONAL USED.

 QS| Method:                                                                GAPW
 QS| Density plane wave grid type                        NON-SPHERICAL FULLSPACE
 QS| Number of grid levels:                                                    4
 QS| Density cutoff [a.u.]:                                                150.0
 QS| Multi grid cutoff [a.u.]: 1) grid level                               150.0
 QS|                           2) grid level                                50.0
 QS|                           3) grid level                                16.7
 QS|                           4) grid level                                 5.6
 QS| Grid level progression factor:                                          3.0
 QS| Relative density cutoff [a.u.]:                                        25.0
 QS| Interaction thresholds: eps_pgf_orb:                                1.0E-16
 QS|                         eps_filter_matrix:                          0.0E+00
 QS|                         eps_core_charge:                            1.0E-14
 QS|                         eps_rho_gspace:                             1.0E-12
 QS|                         eps_rho_rspace:                             1.0E-12
 QS|                         eps_gvg_rspace:                             1.0E-06
 QS|                         eps_ppl:                                    1.0E-02
 QS|                         eps_ppnl:                                   1.0E-08
 QS| GAPW|                   eps_fit:                                    1.0E-04
 QS| GAPW|                   eps_iso:                                    1.0E-12
 QS| GAPW|                   eps_svd:                                    1.0E-08
 QS| GAPW|                   eps_cpc:                                    1.0E-12
 QS| GAPW|   atom-r-grid: quadrature:                                     GC_LOG
 QS| GAPW|      atom-s-grid:  max l :                                          6
 QS| GAPW|      max_l_rho0 :                                                   2


 ATOMIC KIND INFORMATION

  1. Atomic kind: Li                                    Number of atoms:     108

     Orbital Basis Set                                                      OPT2

       Number of orbital shell sets:                                          19
       Number of orbital shells:                                              19
       Number of primitive Cartesian functions:                               22
       Number of Cartesian basis functions:                                   48
       Number of spherical basis functions:                                   43
       Norm type:                                                              2

       Normalised Cartesian orbitals:

                        Set   Shell   Orbital            Exponent    Coefficient

                          1       1    1s             1336.034059     157.497346

                          2       1    1s              444.299817      68.971106

                          3       1    1s              147.797018      30.210600

                          4       1    1s               49.209451      13.241784

                          5       1    1s               16.428957       5.815909

                          6       1    1s                5.529399       2.569914

                          7       1    1s                1.905282       1.155792

                          8       1    1s                0.700259       0.545574

                          9       1    1s                0.299587       0.288604

                         10       1    1s                0.166363       0.185653

                         11       1    1px               1.570911       2.506857
                         11       1    1py               1.570911       2.506857
                         11       1    1pz               1.570911       2.506857

                         12       1    1px               0.748759       0.992813
                         12       1    1py               0.748759       0.992813
                         12       1    1pz               0.748759       0.992813

                         13       1    1px               0.386141       0.433883
                         13       1    1py               0.386141       0.433883
                         13       1    1pz               0.386141       0.433883

                         14       1    1px               0.226205       0.222366
                         14       1    1py               0.226205       0.222366
                         14       1    1pz               0.226205       0.222366

                         15       1    1dx2              0.779208       1.063661
                         15       1    1dxy              0.779208       1.842314
                         15       1    1dxz              0.779208       1.842314
                         15       1    1dy2              0.779208       1.063661
                         15       1    1dyz              0.779208       1.842314
                         15       1    1dz2              0.779208       1.063661

                         16       1    1dx2              0.407899       0.342671
                         16       1    1dxy              0.407899       0.593523
                         16       1    1dxz              0.407899       0.593523
                         16       1    1dy2              0.407899       0.342671
                         16       1    1dyz              0.407899       0.593523
                         16       1    1dz2              0.407899       0.342671

                         17       1    1fx3              0.737063       0.741037
                         17       1    1fx2y             0.737063       1.657009
                         17       1    1fx2z             0.737063       1.657009
                         17       1    1fxy2             0.737063       1.657009
                         17       1    1fxyz             0.737063       2.870024
                         17       1    1fxz2             0.737063       1.657009
                         17       1    1fy3              0.737063       0.741037
                         17       1    1fy2z             0.737063       1.657009
                         17       1    1fyz2             0.737063       1.657009
                         17       1    1fz3              0.737063       0.741037

                         18       1    1s            70681.000000      77.181651
                                                     13594.000000     137.129824
                                                      3100.400000     260.757508

                         19       1    1px              28.500000      10.037838
                                                         6.640000      14.250477
                         19       1    1py              28.500000      10.037838
                                                         6.640000      14.250477
                         19       1    1pz              28.500000      10.037838
                                                         6.640000      14.250477

       Atomic covalent radius [Angstrom]:                                  1.230

       Atomic van der Waals radius [Angstrom]:                             1.820

     The atoms of this atomic kind are PAW atoms (GAPW):
       Hard Gaussian function radius:                                      1.512
       Rho0 radius:                                                        1.512
       Maximum GTO radius used for PAW projector construction:            24.566

     GAPW Soft Basis Set                                               OPT2_soft

       Number of orbital shell sets:                                          19
       Number of orbital shells:                                              19
       Number of primitive Cartesian functions:                               11
       Number of Cartesian basis functions:                                   48
       Number of spherical basis functions:                                   43
       Norm type:                                                              2

       Normalised Cartesian orbitals:

                        Set   Shell   Orbital            Exponent    Coefficient

                          1       1    1s         

                          2       1    1s         

                          3       1    1s         

                          4       1    1s         

                          5       1    1s         

                          6       1    1s         

                          7       1    1s                1.905282       1.155792

                          8       1    1s                0.700259       0.545574

                          9       1    1s                0.299587       0.288604

                         10       1    1s                0.166363       0.185653

                         11       1    1px               1.570911       2.506857
                         11       1    1py               1.570911       2.506857
                         11       1    1pz               1.570911       2.506857

                         12       1    1px               0.748759       0.992813
                         12       1    1py               0.748759       0.992813
                         12       1    1pz               0.748759       0.992813

                         13       1    1px               0.386141       0.433883
                         13       1    1py               0.386141       0.433883
                         13       1    1pz               0.386141       0.433883

                         14       1    1px               0.226205       0.222366
                         14       1    1py               0.226205       0.222366
                         14       1    1pz               0.226205       0.222366

                         15       1    1dx2              0.779208       1.063661
                         15       1    1dxy              0.779208       1.842314
                         15       1    1dxz              0.779208       1.842314
                         15       1    1dy2              0.779208       1.063661
                         15       1    1dyz              0.779208       1.842314
                         15       1    1dz2              0.779208       1.063661

                         16       1    1dx2              0.407899       0.342671
                         16       1    1dxy              0.407899       0.593523
                         16       1    1dxz              0.407899       0.593523
                         16       1    1dy2              0.407899       0.342671
                         16       1    1dyz              0.407899       0.593523
                         16       1    1dz2              0.407899       0.342671

                         17       1    1fx3              0.737063       0.741037
                         17       1    1fx2y             0.737063       1.657009
                         17       1    1fx2z             0.737063       1.657009
                         17       1    1fxy2             0.737063       1.657009
                         17       1    1fxyz             0.737063       2.870024
                         17       1    1fxz2             0.737063       1.657009
                         17       1    1fy3              0.737063       0.741037
                         17       1    1fy2z             0.737063       1.657009
                         17       1    1fyz2             0.737063       1.657009
                         17       1    1fz3              0.737063       0.741037

                         18       1    1s         

                         19       1    1px        
                         19       1    1py        
                         19       1    1pz        

     AE Potential information for                                            ALL

       Description:                                       All-electron potential
                                          Krack, Parrinello, PCCP 2, 2105 (2000)

       Gaussian exponent of the core charge distribution:               3.125000
       Electronic configuration (s p d ...):                           3   0   0

  2. Atomic kind: H                                     Number of atoms:     108

     Orbital Basis Set                                                      OPT2

       Number of orbital shell sets:                                          12
       Number of orbital shells:                                              12
       Number of primitive Cartesian functions:                               14
       Number of Cartesian basis functions:                                   37
       Number of spherical basis functions:                                   32
       Norm type:                                                              2

       Normalised Cartesian orbitals:

                        Set   Shell   Orbital            Exponent    Coefficient

                          1       1    1s               27.463675       8.550255

                          2       1    1s                6.855926       3.019671

                          3       1    1s                1.767997       1.092751

                          4       1    1s                0.511818       0.431268

                          5       1    1s                0.201675       0.214486

                          6       1    1px               2.124086       3.655151
                          6       1    1py               2.124086       3.655151
                          6       1    1pz               2.124086       3.655151

                          7       1    1px               1.073681       1.557881
                          7       1    1py               1.073681       1.557881
                          7       1    1pz               1.073681       1.557881

                          8       1    1px               0.568387       0.703469
                          8       1    1py               0.568387       0.703469
                          8       1    1pz               0.568387       0.703469

                          9       1    1dx2              0.928338       1.445092
                          9       1    1dxy              0.928338       2.502973
                          9       1    1dxz              0.928338       2.502973
                          9       1    1dy2              0.928338       1.445092
                          9       1    1dyz              0.928338       2.502973
                          9       1    1dz2              0.928338       1.445092

                         10       1    1dx2              0.495830       0.482216
                         10       1    1dxy              0.495830       0.835223
                         10       1    1dxz              0.495830       0.835223
                         10       1    1dy2              0.495830       0.482216
                         10       1    1dyz              0.495830       0.835223
                         10       1    1dz2              0.495830       0.482216

                         11       1    1fx3              1.207348       2.249456
                         11       1    1fx2y             1.207348       5.029937
                         11       1    1fx2z             1.207348       5.029937
                         11       1    1fxy2             1.207348       5.029937
                         11       1    1fxyz             1.207348       8.712106
                         11       1    1fxz2             1.207348       5.029937
                         11       1    1fy3              1.207348       2.249456
                         11       1    1fy2z             1.207348       5.029937
                         11       1    1fyz2             1.207348       5.029937
                         11       1    1fz3              1.207348       2.249456

                         12       1    1s             3079.700000       6.291525
                                                       461.520000      11.778577
                                                       105.060000      20.410428

       Atomic covalent radius [Angstrom]:                                  0.320

       Atomic van der Waals radius [Angstrom]:                             1.090

     The atoms of this atomic kind are PAW atoms (GAPW):
       Hard Gaussian function radius:                                      1.200
       Rho0 radius:                                                        1.200
       Maximum GTO radius used for PAW projector construction:            24.566

     GAPW Soft Basis Set                                               OPT2_soft

       Number of orbital shell sets:                                          12
       Number of orbital shells:                                              12
       Number of primitive Cartesian functions:                                9
       Number of Cartesian basis functions:                                   37
       Number of spherical basis functions:                                   32
       Norm type:                                                              2

       Normalised Cartesian orbitals:

                        Set   Shell   Orbital            Exponent    Coefficient

                          1       1    1s         

                          2       1    1s         

                          3       1    1s                1.767997       1.092751

                          4       1    1s                0.511818       0.431268

                          5       1    1s                0.201675       0.214486

                          6       1    1px               2.124086       3.655151
                          6       1    1py               2.124086       3.655151
                          6       1    1pz               2.124086       3.655151

                          7       1    1px               1.073681       1.557881
                          7       1    1py               1.073681       1.557881
                          7       1    1pz               1.073681       1.557881

                          8       1    1px               0.568387       0.703469
                          8       1    1py               0.568387       0.703469
                          8       1    1pz               0.568387       0.703469

                          9       1    1dx2              0.928338       1.445092
                          9       1    1dxy              0.928338       2.502973
                          9       1    1dxz              0.928338       2.502973
                          9       1    1dy2              0.928338       1.445092
                          9       1    1dyz              0.928338       2.502973
                          9       1    1dz2              0.928338       1.445092

                         10       1    1dx2              0.495830       0.482216
                         10       1    1dxy              0.495830       0.835223
                         10       1    1dxz              0.495830       0.835223
                         10       1    1dy2              0.495830       0.482216
                         10       1    1dyz              0.495830       0.835223
                         10       1    1dz2              0.495830       0.482216

                         11       1    1fx3              1.207348       2.249456
                         11       1    1fx2y             1.207348       5.029937
                         11       1    1fx2z             1.207348       5.029937
                         11       1    1fxy2             1.207348       5.029937
                         11       1    1fxyz             1.207348       8.712106
                         11       1    1fxz2             1.207348       5.029937
                         11       1    1fy3              1.207348       2.249456
                         11       1    1fy2z             1.207348       5.029937
                         11       1    1fyz2             1.207348       5.029937
                         11       1    1fz3              1.207348       2.249456

                         12       1    1s         

     AE Potential information for                                            ALL

       Description:                                       All-electron potential
                                          Krack, Parrinello, PCCP 2, 2105 (2000)

       Gaussian exponent of the core charge distribution:              12.500000
       Electronic configuration (s p d ...):                           1   0   0


 MOLECULE KIND INFORMATION


 All atoms are their own molecule, skipping detailed information


 TOTAL NUMBERS AND MAXIMUM NUMBERS

  Total number of            - Atomic kinds:                                   2
                             - Atoms:                                        216
                             - Shell sets:                                  3348
                             - Shells:                                      3348
                             - Primitive Cartesian functions:               3888
                             - Cartesian basis functions:                   9180
                             - Spherical basis functions:                   8100

  Maximum angular momentum of the orbital basis functions:                     3


 MODULE QUICKSTEP:  ATOMIC COORDINATES IN angstrom

  Atom  Kind  Element       X           Y           Z          Z(eff)       Mass

       1     1 Li   3    0.000000    0.000000    0.000000      3.0000       6.9410
       2     1 Li   3    2.042000    2.042000    0.000000      3.0000       6.9410
       3     1 Li   3    2.042000    0.000000    2.042000      3.0000       6.9410
       4     1 Li   3    0.000000    2.042000    2.042000      3.0000       6.9410
       5     2 H    1    0.000000    2.042000    0.000000      1.0000       1.0079
       6     2 H    1    0.000000    0.000000    2.042000      1.0000       1.0079
       7     2 H    1    2.042000    0.000000    0.000000      1.0000       1.0079
       8     2 H    1    2.042000    2.042000    2.042000      1.0000       1.0079
       9     1 Li   3    0.000000    0.000000    4.084000      3.0000       6.9410
      10     1 Li   3    2.042000    2.042000    4.084000      3.0000       6.9410
      11     1 Li   3    2.042000    0.000000    6.126000      3.0000       6.9410
      12     1 Li   3    0.000000    2.042000    6.126000      3.0000       6.9410
      13     2 H    1    0.000000    2.042000    4.084000      1.0000       1.0079
      14     2 H    1    0.000000    0.000000    6.126000      1.0000       1.0079
      15     2 H    1    2.042000    0.000000    4.084000      1.0000       1.0079
      16     2 H    1    2.042000    2.042000    6.126000      1.0000       1.0079
      17     1 Li   3    0.000000    0.000000    8.168000      3.0000       6.9410
      18     1 Li   3    2.042000    2.042000    8.168000      3.0000       6.9410
      19     1 Li   3    2.042000    0.000000   10.210000      3.0000       6.9410
      20     1 Li   3    0.000000    2.042000   10.210000      3.0000       6.9410
      21     2 H    1    0.000000    2.042000    8.168000      1.0000       1.0079
      22     2 H    1    0.000000    0.000000   10.210000      1.0000       1.0079
      23     2 H    1    2.042000    0.000000    8.168000      1.0000       1.0079
      24     2 H    1    2.042000    2.042000   10.210000      1.0000       1.0079
      25     1 Li   3    0.000000    4.084000    0.000000      3.0000       6.9410
      26     1 Li   3    2.042000    6.126000    0.000000      3.0000       6.9410
      27     1 Li   3    2.042000    4.084000    2.042000      3.0000       6.9410
      28     1 Li   3    0.000000    6.126000    2.042000      3.0000       6.9410
      29     2 H    1    0.000000    6.126000    0.000000      1.0000       1.0079
      30     2 H    1    0.000000    4.084000    2.042000      1.0000       1.0079
      31     2 H    1    2.042000    4.084000    0.000000      1.0000       1.0079
      32     2 H    1    2.042000    6.126000    2.042000      1.0000       1.0079
      33     1 Li   3    0.000000    4.084000    4.084000      3.0000       6.9410
      34     1 Li   3    2.042000    6.126000    4.084000      3.0000       6.9410
      35     1 Li   3    2.042000    4.084000    6.126000      3.0000       6.9410
      36     1 Li   3    0.000000    6.126000    6.126000      3.0000       6.9410
      37     2 H    1    0.000000    6.126000    4.084000      1.0000       1.0079
      38     2 H    1    0.000000    4.084000    6.126000      1.0000       1.0079
      39     2 H    1    2.042000    4.084000    4.084000      1.0000       1.0079
      40     2 H    1    2.042000    6.126000    6.126000      1.0000       1.0079
      41     1 Li   3    0.000000    4.084000    8.168000      3.0000       6.9410
      42     1 Li   3    2.042000    6.126000    8.168000      3.0000       6.9410
      43     1 Li   3    2.042000    4.084000   10.210000      3.0000       6.9410
      44     1 Li   3    0.000000    6.126000   10.210000      3.0000       6.9410
      45     2 H    1    0.000000    6.126000    8.168000      1.0000       1.0079
      46     2 H    1    0.000000    4.084000   10.210000      1.0000       1.0079
      47     2 H    1    2.042000    4.084000    8.168000      1.0000       1.0079
      48     2 H    1    2.042000    6.126000   10.210000      1.0000       1.0079
      49     1 Li   3    0.000000    8.168000    0.000000      3.0000       6.9410
      50     1 Li   3    2.042000   10.210000    0.000000      3.0000       6.9410
      51     1 Li   3    2.042000    8.168000    2.042000      3.0000       6.9410
      52     1 Li   3    0.000000   10.210000    2.042000      3.0000       6.9410
      53     2 H    1    0.000000   10.210000    0.000000      1.0000       1.0079
      54     2 H    1    0.000000    8.168000    2.042000      1.0000       1.0079
      55     2 H    1    2.042000    8.168000    0.000000      1.0000       1.0079
      56     2 H    1    2.042000   10.210000    2.042000      1.0000       1.0079
      57     1 Li   3    0.000000    8.168000    4.084000      3.0000       6.9410
      58     1 Li   3    2.042000   10.210000    4.084000      3.0000       6.9410
      59     1 Li   3    2.042000    8.168000    6.126000      3.0000       6.9410
      60     1 Li   3    0.000000   10.210000    6.126000      3.0000       6.9410
      61     2 H    1    0.000000   10.210000    4.084000      1.0000       1.0079
      62     2 H    1    0.000000    8.168000    6.126000      1.0000       1.0079
      63     2 H    1    2.042000    8.168000    4.084000      1.0000       1.0079
      64     2 H    1    2.042000   10.210000    6.126000      1.0000       1.0079
      65     1 Li   3    0.000000    8.168000    8.168000      3.0000       6.9410
      66     1 Li   3    2.042000   10.210000    8.168000      3.0000       6.9410
      67     1 Li   3    2.042000    8.168000   10.210000      3.0000       6.9410
      68     1 Li   3    0.000000   10.210000   10.210000      3.0000       6.9410
      69     2 H    1    0.000000   10.210000    8.168000      1.0000       1.0079
      70     2 H    1    0.000000    8.168000   10.210000      1.0000       1.0079
      71     2 H    1    2.042000    8.168000    8.168000      1.0000       1.0079
      72     2 H    1    2.042000   10.210000   10.210000      1.0000       1.0079
      73     1 Li   3    4.084000    0.000000    0.000000      3.0000       6.9410
      74     1 Li   3    6.126000    2.042000    0.000000      3.0000       6.9410
      75     1 Li   3    6.126000    0.000000    2.042000      3.0000       6.9410
      76     1 Li   3    4.084000    2.042000    2.042000      3.0000       6.9410
      77     2 H    1    4.084000    2.042000    0.000000      1.0000       1.0079
      78     2 H    1    4.084000    0.000000    2.042000      1.0000       1.0079
      79     2 H    1    6.126000    0.000000    0.000000      1.0000       1.0079
      80     2 H    1    6.126000    2.042000    2.042000      1.0000       1.0079
      81     1 Li   3    4.084000    0.000000    4.084000      3.0000       6.9410
      82     1 Li   3    6.126000    2.042000    4.084000      3.0000       6.9410
      83     1 Li   3    6.126000    0.000000    6.126000      3.0000       6.9410
      84     1 Li   3    4.084000    2.042000    6.126000      3.0000       6.9410
      85     2 H    1    4.084000    2.042000    4.084000      1.0000       1.0079
      86     2 H    1    4.084000    0.000000    6.126000      1.0000       1.0079
      87     2 H    1    6.126000    0.000000    4.084000      1.0000       1.0079
      88     2 H    1    6.126000    2.042000    6.126000      1.0000       1.0079
      89     1 Li   3    4.084000    0.000000    8.168000      3.0000       6.9410
      90     1 Li   3    6.126000    2.042000    8.168000      3.0000       6.9410
      91     1 Li   3    6.126000    0.000000   10.210000      3.0000       6.9410
      92     1 Li   3    4.084000    2.042000   10.210000      3.0000       6.9410
      93     2 H    1    4.084000    2.042000    8.168000      1.0000       1.0079
      94     2 H    1    4.084000    0.000000   10.210000      1.0000       1.0079
      95     2 H    1    6.126000    0.000000    8.168000      1.0000       1.0079
      96     2 H    1    6.126000    2.042000   10.210000      1.0000       1.0079
      97     1 Li   3    4.084000    4.084000    0.000000      3.0000       6.9410
      98     1 Li   3    6.126000    6.126000    0.000000      3.0000       6.9410
      99     1 Li   3    6.126000    4.084000    2.042000      3.0000       6.9410
     100     1 Li   3    4.084000    6.126000    2.042000      3.0000       6.9410
     101     2 H    1    4.084000    6.126000    0.000000      1.0000       1.0079
     102     2 H    1    4.084000    4.084000    2.042000      1.0000       1.0079
     103     2 H    1    6.126000    4.084000    0.000000      1.0000       1.0079
     104     2 H    1    6.126000    6.126000    2.042000      1.0000       1.0079
     105     1 Li   3    4.084000    4.084000    4.084000      3.0000       6.9410
     106     1 Li   3    6.126000    6.126000    4.084000      3.0000       6.9410
     107     1 Li   3    6.126000    4.084000    6.126000      3.0000       6.9410
     108     1 Li   3    4.084000    6.126000    6.126000      3.0000       6.9410
     109     2 H    1    4.084000    6.126000    4.084000      1.0000       1.0079
     110     2 H    1    4.084000    4.084000    6.126000      1.0000       1.0079
     111     2 H    1    6.126000    4.084000    4.084000      1.0000       1.0079
     112     2 H    1    6.126000    6.126000    6.126000      1.0000       1.0079
     113     1 Li   3    4.084000    4.084000    8.168000      3.0000       6.9410
     114     1 Li   3    6.126000    6.126000    8.168000      3.0000       6.9410
     115     1 Li   3    6.126000    4.084000   10.210000      3.0000       6.9410
     116     1 Li   3    4.084000    6.126000   10.210000      3.0000       6.9410
     117     2 H    1    4.084000    6.126000    8.168000      1.0000       1.0079
     118     2 H    1    4.084000    4.084000   10.210000      1.0000       1.0079
     119     2 H    1    6.126000    4.084000    8.168000      1.0000       1.0079
     120     2 H    1    6.126000    6.126000   10.210000      1.0000       1.0079
     121     1 Li   3    4.084000    8.168000    0.000000      3.0000       6.9410
     122     1 Li   3    6.126000   10.210000    0.000000      3.0000       6.9410
     123     1 Li   3    6.126000    8.168000    2.042000      3.0000       6.9410
     124     1 Li   3    4.084000   10.210000    2.042000      3.0000       6.9410
     125     2 H    1    4.084000   10.210000    0.000000      1.0000       1.0079
     126     2 H    1    4.084000    8.168000    2.042000      1.0000       1.0079
     127     2 H    1    6.126000    8.168000    0.000000      1.0000       1.0079
     128     2 H    1    6.126000   10.210000    2.042000      1.0000       1.0079
     129     1 Li   3    4.084000    8.168000    4.084000      3.0000       6.9410
     130     1 Li   3    6.126000   10.210000    4.084000      3.0000       6.9410
     131     1 Li   3    6.126000    8.168000    6.126000      3.0000       6.9410
     132     1 Li   3    4.084000   10.210000    6.126000      3.0000       6.9410
     133     2 H    1    4.084000   10.210000    4.084000      1.0000       1.0079
     134     2 H    1    4.084000    8.168000    6.126000      1.0000       1.0079
     135     2 H    1    6.126000    8.168000    4.084000      1.0000       1.0079
     136     2 H    1    6.126000   10.210000    6.126000      1.0000       1.0079
     137     1 Li   3    4.084000    8.168000    8.168000      3.0000       6.9410
     138     1 Li   3    6.126000   10.210000    8.168000      3.0000       6.9410
     139     1 Li   3    6.126000    8.168000   10.210000      3.0000       6.9410
     140     1 Li   3    4.084000   10.210000   10.210000      3.0000       6.9410
     141     2 H    1    4.084000   10.210000    8.168000      1.0000       1.0079
     142     2 H    1    4.084000    8.168000   10.210000      1.0000       1.0079
     143     2 H    1    6.126000    8.168000    8.168000      1.0000       1.0079
     144     2 H    1    6.126000   10.210000   10.210000      1.0000       1.0079
     145     1 Li   3    8.168000    0.000000    0.000000      3.0000       6.9410
     146     1 Li   3   10.210000    2.042000    0.000000      3.0000       6.9410
     147     1 Li   3   10.210000    0.000000    2.042000      3.0000       6.9410
     148     1 Li   3    8.168000    2.042000    2.042000      3.0000       6.9410
     149     2 H    1    8.168000    2.042000    0.000000      1.0000       1.0079
     150     2 H    1    8.168000    0.000000    2.042000      1.0000       1.0079
     151     2 H    1   10.210000    0.000000    0.000000      1.0000       1.0079
     152     2 H    1   10.210000    2.042000    2.042000      1.0000       1.0079
     153     1 Li   3    8.168000    0.000000    4.084000      3.0000       6.9410
     154     1 Li   3   10.210000    2.042000    4.084000      3.0000       6.9410
     155     1 Li   3   10.210000    0.000000    6.126000      3.0000       6.9410
     156     1 Li   3    8.168000    2.042000    6.126000      3.0000       6.9410
     157     2 H    1    8.168000    2.042000    4.084000      1.0000       1.0079
     158     2 H    1    8.168000    0.000000    6.126000      1.0000       1.0079
     159     2 H    1   10.210000    0.000000    4.084000      1.0000       1.0079
     160     2 H    1   10.210000    2.042000    6.126000      1.0000       1.0079
     161     1 Li   3    8.168000    0.000000    8.168000      3.0000       6.9410
     162     1 Li   3   10.210000    2.042000    8.168000      3.0000       6.9410
     163     1 Li   3   10.210000    0.000000   10.210000      3.0000       6.9410
     164     1 Li   3    8.168000    2.042000   10.210000      3.0000       6.9410
     165     2 H    1    8.168000    2.042000    8.168000      1.0000       1.0079
     166     2 H    1    8.168000    0.000000   10.210000      1.0000       1.0079
     167     2 H    1   10.210000    0.000000    8.168000      1.0000       1.0079
     168     2 H    1   10.210000    2.042000   10.210000      1.0000       1.0079
     169     1 Li   3    8.168000    4.084000    0.000000      3.0000       6.9410
     170     1 Li   3   10.210000    6.126000    0.000000      3.0000       6.9410
     171     1 Li   3   10.210000    4.084000    2.042000      3.0000       6.9410
     172     1 Li   3    8.168000    6.126000    2.042000      3.0000       6.9410
     173     2 H    1    8.168000    6.126000    0.000000      1.0000       1.0079
     174     2 H    1    8.168000    4.084000    2.042000      1.0000       1.0079
     175     2 H    1   10.210000    4.084000    0.000000      1.0000       1.0079
     176     2 H    1   10.210000    6.126000    2.042000      1.0000       1.0079
     177     1 Li   3    8.168000    4.084000    4.084000      3.0000       6.9410
     178     1 Li   3   10.210000    6.126000    4.084000      3.0000       6.9410
     179     1 Li   3   10.210000    4.084000    6.126000      3.0000       6.9410
     180     1 Li   3    8.168000    6.126000    6.126000      3.0000       6.9410
     181     2 H    1    8.168000    6.126000    4.084000      1.0000       1.0079
     182     2 H    1    8.168000    4.084000    6.126000      1.0000       1.0079
     183     2 H    1   10.210000    4.084000    4.084000      1.0000       1.0079
     184     2 H    1   10.210000    6.126000    6.126000      1.0000       1.0079
     185     1 Li   3    8.168000    4.084000    8.168000      3.0000       6.9410
     186     1 Li   3   10.210000    6.126000    8.168000      3.0000       6.9410
     187     1 Li   3   10.210000    4.084000   10.210000      3.0000       6.9410
     188     1 Li   3    8.168000    6.126000   10.210000      3.0000       6.9410
     189     2 H    1    8.168000    6.126000    8.168000      1.0000       1.0079
     190     2 H    1    8.168000    4.084000   10.210000      1.0000       1.0079
     191     2 H    1   10.210000    4.084000    8.168000      1.0000       1.0079
     192     2 H    1   10.210000    6.126000   10.210000      1.0000       1.0079
     193     1 Li   3    8.168000    8.168000    0.000000      3.0000       6.9410
     194     1 Li   3   10.210000   10.210000    0.000000      3.0000       6.9410
     195     1 Li   3   10.210000    8.168000    2.042000      3.0000       6.9410
     196     1 Li   3    8.168000   10.210000    2.042000      3.0000       6.9410
     197     2 H    1    8.168000   10.210000    0.000000      1.0000       1.0079
     198     2 H    1    8.168000    8.168000    2.042000      1.0000       1.0079
     199     2 H    1   10.210000    8.168000    0.000000      1.0000       1.0079
     200     2 H    1   10.210000   10.210000    2.042000      1.0000       1.0079
     201     1 Li   3    8.168000    8.168000    4.084000      3.0000       6.9410
     202     1 Li   3   10.210000   10.210000    4.084000      3.0000       6.9410
     203     1 Li   3   10.210000    8.168000    6.126000      3.0000       6.9410
     204     1 Li   3    8.168000   10.210000    6.126000      3.0000       6.9410
     205     2 H    1    8.168000   10.210000    4.084000      1.0000       1.0079
     206     2 H    1    8.168000    8.168000    6.126000      1.0000       1.0079
     207     2 H    1   10.210000    8.168000    4.084000      1.0000       1.0079
     208     2 H    1   10.210000   10.210000    6.126000      1.0000       1.0079
     209     1 Li   3    8.168000    8.168000    8.168000      3.0000       6.9410
     210     1 Li   3   10.210000   10.210000    8.168000      3.0000       6.9410
     211     1 Li   3   10.210000    8.168000   10.210000      3.0000       6.9410
     212     1 Li   3    8.168000   10.210000   10.210000      3.0000       6.9410
     213     2 H    1    8.168000   10.210000    8.168000      1.0000       1.0079
     214     2 H    1    8.168000    8.168000   10.210000      1.0000       1.0079
     215     2 H    1   10.210000    8.168000    8.168000      1.0000       1.0079
     216     2 H    1   10.210000   10.210000   10.210000      1.0000       1.0079




 SCF PARAMETERS         Density guess:                                   RESTART
                        --------------------------------------------------------
                        max_scf:                                              20
                        max_scf_history:                                       0
                        max_diis:                                              4
                        --------------------------------------------------------
                        eps_scf:                                        1.00E-06
                        eps_scf_history:                                0.00E+00
                        eps_diis:                                       1.00E-01
                        eps_eigval:                                     1.00E-05
                        --------------------------------------------------------
                        level_shift [a.u.]:                                 0.00
                        --------------------------------------------------------
                        No outer SCF

 PW_GRID| Information for grid number                                          1
 PW_GRID| Grid distributed over                                  1024 processors
 PW_GRID| Real space group dimensions                                    32   32
 PW_GRID| the grid is blocked:                                               YES
 PW_GRID| Cutoff [a.u.]                                                    150.0
 PW_GRID| spherical cutoff:                                                   NO
 PW_GRID|   Bounds   1            -64      63                Points:         128
 PW_GRID|   Bounds   2            -64      63                Points:         128
 PW_GRID|   Bounds   3            -64      63                Points:         128
 PW_GRID| Volume element (a.u.^3)  0.5918E-02     Volume (a.u.^3)     12411.3085
 PW_GRID| Grid span                                                    FULLSPACE
 PW_GRID|   Distribution                         Average         Max         Min
 PW_GRID|   G-Vectors                             2048.0        2048        2048
 PW_GRID|   G-Rays                                  16.0          16          16
 PW_GRID|   Real Space Points                     2048.0        2048        2048

 PW_GRID| Information for grid number                                          2
 PW_GRID| Number of the reference grid                                         1
 PW_GRID| Grid distributed over                                  1024 processors
 PW_GRID| Real space group dimensions                                    32   32
 PW_GRID| the grid is blocked:                                                NO
 PW_GRID| Cutoff [a.u.]                                                     50.0
 PW_GRID| spherical cutoff:                                                   NO
 PW_GRID|   Bounds   1            -37      37                Points:          75
 PW_GRID|   Bounds   2            -37      37                Points:          75
 PW_GRID|   Bounds   3            -37      37                Points:          75
 PW_GRID| Volume element (a.u.^3)  0.2942E-01     Volume (a.u.^3)     12411.3085
 PW_GRID| Grid span                                                    FULLSPACE
 PW_GRID|   Distribution                         Average         Max         Min
 PW_GRID|   G-Vectors                              412.0        1200           0
 PW_GRID|   G-Rays                                   5.5          16           0
 PW_GRID|   Real Space Points                      412.0         675         300

 PW_GRID| Information for grid number                                          3
 PW_GRID| Number of the reference grid                                         1
 PW_GRID| Grid distributed over                                  1024 processors
 PW_GRID| Real space group dimensions                                    32   32
 PW_GRID| the grid is blocked:                                                NO
 PW_GRID| Cutoff [a.u.]                                                     16.7
 PW_GRID| spherical cutoff:                                                   NO
 PW_GRID|   Bounds   1            -22      22                Points:          45
 PW_GRID|   Bounds   2            -22      22                Points:          45
 PW_GRID|   Bounds   3            -22      22                Points:          45
 PW_GRID| Volume element (a.u.^3)  0.1362         Volume (a.u.^3)     12411.3085
 PW_GRID| Grid span                                                    FULLSPACE
 PW_GRID|   Distribution                         Average         Max         Min
 PW_GRID|   G-Vectors                               89.0         720           0
 PW_GRID|   G-Rays                                   2.0          16           0
 PW_GRID|   Real Space Points                       89.0         180          45

 PW_GRID| Information for grid number                                          4
 PW_GRID| Number of the reference grid                                         1
 PW_GRID| Grid distributed over                                  1024 processors
 PW_GRID| Real space group dimensions                                    32   32
 PW_GRID| the grid is blocked:                                                NO
 PW_GRID| Cutoff [a.u.]                                                      5.6
 PW_GRID| spherical cutoff:                                                   NO
 PW_GRID|   Bounds   1            -12      12                Points:          25
 PW_GRID|   Bounds   2            -12      12                Points:          25
 PW_GRID|   Bounds   3            -12      12                Points:          25
 PW_GRID| Volume element (a.u.^3)  0.7943         Volume (a.u.^3)     12411.3085
 PW_GRID| Grid span                                                    FULLSPACE
 PW_GRID|   Distribution                         Average         Max         Min
 PW_GRID|   G-Vectors                               15.3         400           0
 PW_GRID|   G-Rays                                   0.6          16           0
 PW_GRID|   Real Space Points                       15.3          25           0

 POISSON| Solver                                                        PERIODIC
 POISSON| Periodicity                                                        XYZ

 RS_GRID| Information for grid number                                          1
 RS_GRID|   Bounds   1            -64      63                Points:         128
 RS_GRID|   Bounds   2            -64      63                Points:         128
 RS_GRID|   Bounds   3            -64      63                Points:         128
 RS_GRID| Real space distribution over                                  8 groups
 RS_GRID| Real space distribution along direction                              1
 RS_GRID| Border size                                                         25
 RS_GRID| Real space distribution over                                  8 groups
 RS_GRID| Real space distribution along direction                              2
 RS_GRID| Border size                                                         25
 RS_GRID| Real space distribution over                                 16 groups
 RS_GRID| Real space distribution along direction                              3
 RS_GRID| Border size                                                         25
 RS_GRID|   Distribution                         Average         Max         Min
 RS_GRID|   Planes                                  66.0          66          66
 RS_GRID|   Distribution                         Average         Max         Min
 RS_GRID|   Planes                                  66.0          66          66
 RS_GRID|   Distribution                         Average         Max         Min
 RS_GRID|   Planes                                  58.0          58          58

 RS_GRID| Information for grid number                                          2
 RS_GRID|   Bounds   1            -37      37                Points:          75
 RS_GRID|   Bounds   2            -37      37                Points:          75
 RS_GRID|   Bounds   3            -37      37                Points:          75
 RS_GRID| Real space distribution over                                  8 groups
 RS_GRID| Real space distribution along direction                              1
 RS_GRID| Border size                                                         25
 RS_GRID| Real space distribution over                                  8 groups
 RS_GRID| Real space distribution along direction                              2
 RS_GRID| Border size                                                         25
 RS_GRID| Real space distribution over                                 16 groups
 RS_GRID| Real space distribution along direction                              3
 RS_GRID| Border size                                                         25
 RS_GRID|   Distribution                         Average         Max         Min
 RS_GRID|   Planes                                  59.4          60          59
 RS_GRID|   Distribution                         Average         Max         Min
 RS_GRID|   Planes                                  59.4          60          59
 RS_GRID|   Distribution                         Average         Max         Min
 RS_GRID|   Planes                                  54.7          55          54

 RS_GRID| Information for grid number                                          3
 RS_GRID|   Bounds   1            -22      22                Points:          45
 RS_GRID|   Bounds   2            -22      22                Points:          45
 RS_GRID|   Bounds   3            -22      22                Points:          45
 RS_GRID| Real space fully replicated
 RS_GRID| Group size                                                           1

 RS_GRID| Information for grid number                                          4
 RS_GRID|   Bounds   1            -12      12                Points:          25
 RS_GRID|   Bounds   2            -12      12                Points:          25
 RS_GRID|   Bounds   3            -12      12                Points:          25
 RS_GRID| Real space fully replicated
 RS_GRID| Group size                                                           1

  HFX_INFO| Replica ID:                                                        1
  HFX_INFO| FRACTION:                                               1.0000000000
  HFX_INFO| Interaction Potential:                                     TRUNCATED
  HFX_INFO| Cutoff Radius [angstrom]:                               6.0000000000
  HFX_INFO| EPS_SCHWARZ:                                                 1.0E-09
  HFX_INFO| EPS_SCHWARZ_FORCES                                           1.0E-09
  HFX_INFO| EPS_STORAGE_SCALING:                                         1.0E-01
  HFX_INFO| NBINS:                                                            64
  HFX_INFO| BLOCK_SIZE:                                                        1
  HFX_INFO| NUMBER_OF_SHELLS:                                               AUTO
  HFX_INFO| Number of periodic shells considered:                             -1
  HFX_INFO| Number of periodic cells considered:                              27


 Number of electrons:                                                        432
 Number of occupied orbitals:                                                216
 Number of molecular orbitals:                                               216

 Number of orbital functions:                                               8100
 Number of independent orbital functions:                                   8100

 Extrapolation method: initial_guess


 SCF WAVEFUNCTION OPTIMIZATION

  ----------------------------------- OT ---------------------------------------
  Minimizer      : CG                  : conjugate gradient
  Preconditioner : FULL_ALL            : diagonalization, state selective
  Precond_solver : DEFAULT
  Line search    : 2PNT                : 2 energies, one gradient
  stepsize       :    0.15000000                  energy_gap     :    0.08000000
  eps_taylor     :   0.10000E-15                  max_taylor     :             4
  ----------------------------------- OT ---------------------------------------

  Step     Update method      Time    Convergence         Total energy    Change
  ------------------------------------------------------------------------------

  HFX_MEM_INFO| Est. max. program size before HFX [MiB]:                     376
  HFX_MEM_INFO| Number of cart. primitive ERI's calculated:       18728082069295
  HFX_MEM_INFO| Number of sph. ERI's calculated:                   4747425803902
  HFX_MEM_INFO| Number of sph. ERI's stored in-core:               3559832631419
  HFX_MEM_INFO| Number of sph. ERI's stored on disk:                           0
  HFX_MEM_INFO| Number of sph. ERI's calculated on the fly:                    0
  HFX_MEM_INFO| Total memory consumption ERI's RAM [MiB]:                3893120
  HFX_MEM_INFO| Whereof max-vals [MiB]:                                    61078
  HFX_MEM_INFO| Total compression factor ERI's RAM:                         6.98
  HFX_MEM_INFO| Total memory consumption ERI's disk [MiB]:                     0
  HFX_MEM_INFO| Total compression factor ERI's disk:                        0.00
  HFX_MEM_INFO| Size of density/Fock matrix [MiB]:                           502
  HFX_MEM_INFO| Size of buffers [MiB]:                                        66
  HFX_MEM_INFO| Number of periodic image cells considered:                    27
  HFX_MEM_INFO| Est. max. program size after HFX  [MiB]:                    5100

     1 OT CG       0.15E+00  253.0     0.03406643      -870.3838135131 -8.70E+02
     2 OT LS       0.15E-02   12.2                   200824.7892411433
     3 OT CG       0.15E-02   12.3   123.31451473      1353.6390508599  2.22E+03
     4 OT LS       0.74E-03   12.2                   604653.9873553852
     5 OT CG       0.74E-03   12.3  1067.23032996    582255.7564089571  5.81E+05
     6 OT LS       0.37E-03   12.4                   617951.8755306567
     7 OT CG       0.37E-03   12.3  1080.87386295    647093.7467921363  6.48E+04
     8 OT LS       0.18E-03   12.2                   631705.2575916720
     9 OT CG       0.18E-03   12.3  1037.17798730    628813.7061393198 -1.83E+04
    10 OT LS       0.92E-04   12.2                   645343.4577937124
    11 OT CG       0.92E-04   12.3  1037.14910705    593749.3998099901 -3.51E+04
    12 OT LS       0.46E-04   12.2                   640194.0047931890
    13 OT CG       0.46E-04   12.3   992.29844784    624905.1197099055  3.12E+04
    14 OT LS       0.23E-04   12.2                   660992.3983035571
    15 OT CG       0.23E-04   12.3   997.47680998    643106.7558344363  1.82E+04
    16 OT LS       0.12E-04   12.2                   675093.8125440670
    17 OT CG       0.12E-04   12.3  1014.05458025    671079.7539830059  2.80E+04
    18 OT LS       0.58E-05   12.2                   656231.2900928631
    19 OT CG       0.58E-05   12.3   985.25561882    680577.1338368504  9.50E+03
    20 OT LS       0.29E-05   12.2                   710137.1645858674

  Leaving inner SCF loop after reaching    20 steps.


  Electronic density on regular grids:       -345.3139295529       86.6860704471
  Core density on regular grids:              432.0000000000       -0.0000000000
  Hard and soft densities (Lebedev):         -902.9197312509     -816.0430049248
  Total Rho_soft + Rho1_hard - Rho1_soft     -432.1906558790
  Total charge density (r-space):              -0.1906558790
  Total Rho_soft + Rho0_soft (g-space):        -0.2383861723

  Overlap energy of the core charge distribution:               0.00000000000000
  Self energy of the core charge distribution:               -837.82153156841810
  Core Hamiltonian energy:                                 709816.49283865990583
  Hartree energy:                                             454.99659885233615
  Exchange-correlation energy:                                  0.00000000000000
  Hartree-Fock Exchange energy:                              -479.71365546751417

  GAPW| Exc from hard and soft atomic rho1:                     0.00000000000000
  GAPW| local Eh = 1 center integrals:                       1183.21033539105292

  Total energy:                                            710137.16458586743101

 *** WARNING in qs_scf.F:576 :: SCF run NOT converged ***


 !-----------------------------------------------------------------------------!
                     Mulliken Population Analysis

 #  Atom  Element  Kind  Atomic population                           Net charge
       1     Li       1          2.534201                              0.465799
       2     Li       1          2.286238                              0.713762
       3     Li       1          2.227409                              0.772591
       4     Li       1          2.294433                              0.705567
       5     H        2          0.793692                              0.206308
       6     H        2          0.946742                              0.053258
       7     H        2          0.839907                              0.160093
       8     H        2          0.874279                              0.125721
       9     Li       1          2.182181                              0.817819
      10     Li       1          1.991277                              1.008723
      11     Li       1          2.382229                              0.617771
      12     Li       1          2.200223                              0.799777
      13     H        2          0.650919                              0.349081
      14     H        2          0.815311                              0.184689
      15     H        2          0.864918                              0.135082
      16     H        2          0.990851                              0.009149
      17     Li       1          2.613985                              0.386015
      18     Li       1          2.156525                              0.843475
      19     Li       1          2.204425                              0.795575
      20     Li       1          2.286972                              0.713028
      21     H        2          0.792996                              0.207004
      22     H        2          1.156660                             -0.156660
      23     H        2          0.898813                              0.101187
      24     H        2          0.941305                              0.058695
      25     Li       1          2.164654                              0.835346
      26     Li       1          2.362115                              0.637885
      27     Li       1          1.862246                              1.137754
      28     Li       1          2.175117                              0.824883
      29     H        2          0.831483                              0.168517
      30     H        2          0.840666                              0.159334
      31     H        2          0.851340                              0.148660
      32     H        2          0.989292                              0.010708
      33     Li       1          2.534974                              0.465026
      34     Li       1          2.086392                              0.913608
      35     Li       1          2.174384                              0.825616
      36     Li       1          2.490439                              0.509561
      37     H        2          0.880953                              0.119047
      38     H        2          0.849472                              0.150528
      39     H        2          0.835352                              0.164648
      40     H        2          0.877355                              0.122645
      41     Li       1          2.256766                              0.743234
      42     Li       1          2.353690                              0.646310
      43     Li       1          2.137665                              0.862335
      44     Li       1          2.594509                              0.405491
      45     H        2          1.136464                             -0.136464
      46     H        2          0.890565                              0.109435
      47     H        2          0.934462                              0.065538
      48     H        2          0.929754                              0.070246
      49     Li       1          2.652533                              0.347467
      50     Li       1          2.171928                              0.828072
      51     Li       1          1.956475                              1.043525
      52     Li       1          2.009717                              0.990283
      53     H        2          1.182387                             -0.182387
      54     H        2          0.871030                              0.128970
      55     H        2          0.920785                              0.079215
      56     H        2          0.929473                              0.070527
      57     Li       1          2.235747                              0.764253
      58     Li       1          2.070664                              0.929336
      59     Li       1          2.299119                              0.700881
      60     Li       1          2.609468                              0.390532
      61     H        2          1.111669                             -0.111669
      62     H        2          1.191162                             -0.191162
      63     H        2          0.874031                              0.125969
      64     H        2          1.003013                             -0.003013
      65     Li       1          3.060415                             -0.060415
      66     Li       1          2.326855                              0.673145
      67     Li       1          2.181955                              0.818045
      68     Li       1          2.943809                              0.056191
      69     H        2          1.149673                             -0.149673
      70     H        2          1.184400                             -0.184400
      71     H        2          0.940914                              0.059086
      72     H        2          1.057210                             -0.057210
      73     Li       1          2.066468                              0.933532
      74     Li       1          2.173134                              0.826866
      75     Li       1          2.201398                              0.798602
      76     Li       1          2.319053                              0.680947
      77     H        2          0.782013                              0.217987
      78     H        2          0.741609                              0.258391
      79     H        2          0.838544                              0.161456
      80     H        2          0.796106                              0.203894
      81     Li       1          1.974822                              1.025178
      82     Li       1          1.761350                              1.238650
      83     Li       1          2.290765                              0.709235
      84     Li       1          1.962928                              1.037072
      85     H        2          0.888754                              0.111246
      86     H        2          0.871421                              0.128579
      87     H        2          0.965908                              0.034092
      88     H        2          1.013760                             -0.013760
      89     Li       1          2.163810                              0.836190
      90     Li       1          2.019608                              0.980392
      91     Li       1          2.330029                              0.669971
      92     Li       1          2.105867                              0.894133
      93     H        2          0.846311                              0.153689
      94     H        2          0.719666                              0.280334
      95     H        2          0.859265                              0.140735
      96     H        2          0.856387                              0.143613
      97     Li       1          2.097849                              0.902151
      98     Li       1          2.305070                              0.694930
      99     Li       1          1.985287                              1.014713
     100     Li       1          2.088122                              0.911878
     101     H        2          0.809307                              0.190693
     102     H        2          0.772026                              0.227974
     103     H        2          0.836264                              0.163736
     104     H        2          0.742609                              0.257391
     105     Li       1          2.089722                              0.910278
     106     Li       1          2.298813                              0.701187
     107     Li       1          2.188670                              0.811330
     108     Li       1          2.219198                              0.780802
     109     H        2          0.781674                              0.218326
     110     H        2          1.105102                             -0.105102
     111     H        2          0.964155                              0.035845
     112     H        2          0.927423                              0.072577
     113     Li       1          2.312309                              0.687691
     114     Li       1          2.342747                              0.657253
     115     Li       1          2.394757                              0.605243
     116     Li       1          2.370198                              0.629802
     117     H        2          1.005651                             -0.005651
     118     H        2          1.025193                             -0.025193
     119     H        2          0.932208                              0.067792
     120     H        2          0.923371                              0.076629
     121     Li       1          2.247168                              0.752832
     122     Li       1          2.519494                              0.480506
     123     Li       1          2.294203                              0.705797
     124     Li       1          2.190333                              0.809667
     125     H        2          0.974093                              0.025907
     126     H        2          0.808073                              0.191927
     127     H        2          1.078303                             -0.078303
     128     H        2          0.782301                              0.217699
     129     Li       1          2.248377                              0.751623
     130     Li       1          2.489580                              0.510420
     131     Li       1          2.376961                              0.623039
     132     Li       1          2.223026                              0.776974
     133     H        2          0.829663                              0.170337
     134     H        2          0.984598                              0.015402
     135     H        2          1.317270                             -0.317270
     136     H        2          0.947567                              0.052433
[...]
 init_interaction_radii               1  3.0    0.000    0.000    0.000    0.000
 wfs_update                           1  3.0    0.000    0.000    0.000    0.000
 distribute_molecules_1d              1  3.0    0.000    0.000    0.000    0.000
 build_neighbor_lists_sab_orb         1  5.0    0.000    0.000    0.000    0.000
 create_grid_atom                     2  4.0    0.000    0.000    0.000    0.000
 release_fast_vec_access           1282 13.0    0.000    0.000    0.000    0.000
 clebsch_gordon_init                  1  4.0    0.000    0.000    0.000    0.000
 sort_shells                          4  9.0    0.000    0.000    0.000    0.000
 mp_max_d                             1  1.0    0.000    0.000    0.000    0.000
 topology_connectivity_pack_11_       1  4.0    0.000    0.000    0.000    0.000
 mp_sum_r                             1  2.0    0.000    0.000    0.000    0.000
 topology_coordinate_pack             1  3.0    0.000    0.000    0.000    0.000
 build_neighbor_lists_sab_core        1  5.0    0.000    0.000    0.000    0.000
 qs_scf_ensure_mos                    1  3.0    0.000    0.000    0.000    0.000
 distribute_molecules_2d              1  4.0    0.000    0.000    0.000    0.000
 dbcsr_get_global_row_map           306 10.8    0.000    0.000    0.000    0.000
 topology_connectivity_pack_2         1  4.0    0.000    0.000    0.000    0.000
 dbcsr_scale_d                       21 11.9    0.000    0.000    0.000    0.000
 init_lebedev_grids                   1  4.0    0.000    0.000    0.000    0.000
 topology_coordinate_pack_1           1  4.0    0.000    0.000    0.000    0.000
 mp_min_i                             6  6.0    0.000    0.000    0.000    0.000
 topology_connectivity_pack_14        1  4.0    0.000    0.000    0.000    0.000
 qs_vxc_create                       20  8.0    0.000    0.000    0.000    0.000
 topology_generate_molecule           1  4.0    0.000    0.000    0.000    0.000
 dbcsr_get_global_col_map           306 10.8    0.000    0.000    0.000    0.000
 qs_efield_local_operator            20  8.0    0.000    0.000    0.000    0.000
 build_neighbor_lists_sab_all         1  5.0    0.000    0.000    0.000    0.000
 calculate_vxc_atom                  20  8.0    0.000    0.000    0.000    0.000
 dbcsr_verify_matrix                  1  8.0    0.000    0.000    0.000    0.000
 mp_max_lv                            4  8.0    0.000    0.000    0.000    0.000
 write_particle_distances             1  3.0    0.000    0.000    0.000    0.000
 ot_scf_read_input                    1  5.0    0.000    0.000    0.000    0.000
 write_qs_control                     1  3.0    0.000    0.000    0.000    0.000
 topology_generate_bond_1             1  5.0    0.000    0.000    0.000    0.000
 topology_constraint_pack             1  3.0    0.000    0.000    0.000    0.000
 scf_env_create                       1  3.0    0.000    0.000    0.000    0.000
 write_molecule_kind_set              1  3.0    0.000    0.000    0.000    0.000
 init_coulomb_local                   1  3.0    0.000    0.000    0.000    0.000
 write_gto_basis_sets                 1  3.0    0.000    0.000    0.000    0.000
 dbcsr_mm_hostdrv_init              306 14.8    0.000    0.000    0.000    0.000
 read_qs_section                      1  3.0    0.000    0.000    0.000    0.000
 pw_poisson_rebuild                  20  9.0    0.000    0.000    0.000    0.000
 allocate_rho_atom_rad                2 10.0    0.000    0.000    0.000    0.000
 write_dft_control                    1  3.0    0.000    0.000    0.000    0.000
 topology_connectivity_pack_11        1  4.0    0.000    0.000    0.000    0.000
 check_generate_mol                   1  6.0    0.000    0.000    0.000    0.000
 topology_connectivity_pack_4         1  4.0    0.000    0.000    0.000    0.000
 cp_fm_release                      110  9.4    0.000    0.000    0.000    0.000
 topology_connectivity_pack_12        1  4.0    0.000    0.000    0.000    0.000
 topology_connectivity_pack_6         1  4.0    0.000    0.000    0.000    0.000
 cp_fm_to_fm_matrix                   3  6.7    0.000    0.000    0.000    0.000
 topology_constraint_pack_1           1  4.0    0.000    0.000    0.000    0.000
 topology_generate_onfo               1  4.0    0.000    0.000    0.000    0.000
 qs_ot_p2m_taylor                     1  7.0    0.000    0.000    0.000    0.000
 pw_poisson_set                       1  6.0    0.000    0.000    0.000    0.000
 read_tddfpt2_control                 1  3.0    0.000    0.000    0.000    0.000
 external_read_density                1  4.0    0.000    0.000    0.000    0.000
 qs_efield_berry_phase               20  8.0    0.000    0.000    0.000    0.000
 topology_connectivity_pack_10        1  4.0    0.000    0.000    0.000    0.000
 topology_constraint_pack_7           1  4.0    0.000    0.000    0.000    0.000
 atom2d_build                         1  5.0    0.000    0.000    0.000    0.000
 topology_coordinate_pack_7b          1  4.0    0.000    0.000    0.000    0.000
 kpoint_initialize                    1  2.0    0.000    0.000    0.000    0.000
 dbcsr_add_on_diag                    2  8.0    0.000    0.000    0.000    0.000
 scf_c_read_parameters                1  3.0    0.000    0.000    0.000    0.000
 topology_generate_bond_2             1  5.0    0.000    0.000    0.000    0.000
 qs_energies_properties               1  3.0    0.000    0.000    0.000    0.000
 topology_set_atm_mass                1  4.0    0.000    0.000    0.000    0.000
 topology_molecules_check             1  4.0    0.000    0.000    0.000    0.000
 wfi_extrapolate                      1  5.0    0.000    0.000    0.000    0.000
 ot_readwrite_input                   1  6.0    0.000    0.000    0.000    0.000
 topology_connectivity_pack_13        1  4.0    0.000    0.000    0.000    0.000
 rho0_s_grid_create                   2  4.0    0.000    0.000    0.000    0.000
 topology_generate_bond_6             1  5.0    0.000    0.000    0.000    0.000
 topology_constraint_pack_5           1  4.0    0.000    0.000    0.000    0.000
 topology_coordinate_pack_11          1  4.0    0.000    0.000    0.000    0.000
 qs_scf_print_scf_summary             1  5.0    0.000    0.000    0.000    0.000
 sort_neighbor_lists                  1  7.0    0.000    0.000    0.000    0.000
 make_basic_distribution              1  5.0    0.000    0.000    0.000    0.000
 topology_coordinate_pack_7a          1  4.0    0.000    0.000    0.000    0.000
 set_mo_occupation_1                 22  6.9    0.000    0.000    0.000    0.000
 scf_env_release                      3  2.7    0.000    0.000    0.000    0.000
 write_mo_dependent_results           1  5.0    0.000    0.000    0.000    0.000
 dbcsr_filter_anytype                22  7.8    0.000    0.000    0.000    0.000
 topology_connectivity_pack_5         1  4.0    0.000    0.000    0.000    0.000
 read_binary_coordinates              1  3.0    0.000    0.000    0.000    0.000
 qs_scf_post_charges                  1  4.0    0.000    0.000    0.000    0.000
 cp_fm_set_all                        1  7.0    0.000    0.000    0.000    0.000
 grid_free_task_list                  1  2.0    0.000    0.000    0.000    0.000
 topology_coordinate_pack_5           1  4.0    0.000    0.000    0.000    0.000
 read_topology_section                1  3.0    0.000    0.000    0.000    0.000
 destroy_preconditioner               1  3.0    0.000    0.000    0.000    0.000
 topology_connectivity_pack_3         1  4.0    0.000    0.000    0.000    0.000
 fist_neighbor_init                   1  8.0    0.000    0.000    0.000    0.000
 mp_sum_lm3                           1  2.0    0.000    0.000    0.000    0.000
 create_local_fixd_list               1  3.0    0.000    0.000    0.000    0.000
 dump_info_core_hamiltonian           1  5.0    0.000    0.000    0.000    0.000
 topology_connectivity_pack_1         1  4.0    0.000    0.000    0.000    0.000
 pw_create                           19  8.2    0.000    0.000    0.000    0.000
 mp_min_rv                            1  2.0    0.000    0.000    0.000    0.000
 grid_free_basis_set                  2  2.0    0.000    0.000    0.000    0.000
 topology_connectivity_pack_9         1  4.0    0.000    0.000    0.000    0.000
 scf_c_create                         1  3.0    0.000    0.000    0.000    0.000
 mp_sum_rv                            1  2.0    0.000    0.000    0.000    0.000
 resp_fit                             1  5.0    0.000    0.000    0.000    0.000
 mp_max_rv                            1  2.0    0.000    0.000    0.000    0.000
 topology_muc                         1  4.0    0.000    0.000    0.000    0.000
 qs_scf_post_ps_implicit              1  6.0    0.000    0.000    0.000    0.000
 topology_constraint_pack_3           1  4.0    0.000    0.000    0.000    0.000
 qs_ks_did_change                    22  5.0    0.000    0.000    0.000    0.000
 fix_atom_control                     1  2.0    0.000    0.000    0.000    0.000
 write_symmetry                       1  3.0    0.000    0.000    0.000    0.000
 cp_result_create                     1  2.0    0.000    0.000    0.000    0.000
 qs_scf_post_transport                1  6.0    0.000    0.000    0.000    0.000
 check_cp2k_input                     1  2.0    0.000    0.000    0.000    0.000
 set_mo_occupation_2                  1  6.0    0.000    0.000    0.000    0.000
 write_ks_matrix_csr                  1  6.0    0.000    0.000    0.000    0.000
 topology_connectivity_pack_7         1  4.0    0.000    0.000    0.000    0.000
 topology_constraint_pack_4           1  4.0    0.000    0.000    0.000    0.000
 write_adjacency_matrix               1  6.0    0.000    0.000    0.000    0.000
 pw_grid_allocate                     4  8.0    0.000    0.000    0.000    0.000
 handle_ext_restart                   1  3.0    0.000    0.000    0.000    0.000
 check_diag                          23 10.7    0.000    0.000    0.000    0.000
 transport_current                    1  7.0    0.000    0.000    0.000    0.000
 qs_scf_post_local_energy             1  6.0    0.000    0.000    0.000    0.000
 cp_ddapc_init                        1  5.0    0.000    0.000    0.000    0.000
 grid_create_basis_set                2  7.0    0.000    0.000    0.000    0.000
 mp_dims_create                       4  9.0    0.000    0.000    0.000    0.000
 hfx_release_basis_types              4  2.0    0.000    0.000    0.000    0.000
 qs_scf_post_local_stress             1  6.0    0.000    0.000    0.000    0.000
 fp_env_release                       3  2.0    0.000    0.000    0.000    0.000
 read_mgrid_section                   1  3.0    0.000    0.000    0.000    0.000
 external_e_potential                 1  4.0    0.000    0.000    0.000    0.000
 write_structure_data                 1  3.0    0.000    0.000    0.000    0.000
 atom2d_cleanup                       1  5.0    0.000    0.000    0.000    0.000
 calculate_ecore_efield               1  4.0    0.000    0.000    0.000    0.000
 ec_env_release                       1  2.0    0.000    0.000    0.000    0.000
 qs_scf_post_xray                     1  4.0    0.000    0.000    0.000    0.000
 allocate_qs_energy                   1  3.0    0.000    0.000    0.000    0.000
 qs_scf_post_elf                      1  4.0    0.000    0.000    0.000    0.000
 write_s_matrix_csr                   1  6.0    0.000    0.000    0.000    0.000
 write_mos_molden                     1  6.0    0.000    0.000    0.000    0.000
 qs_scf_post_epr                      1  4.0    0.000    0.000    0.000    0.000
 qs_scf_post_efg                      1  4.0    0.000    0.000    0.000    0.000
 qs_scf_post_molopt                   1  4.0    0.000    0.000    0.000    0.000
 qs_scf_post_moments                  1  4.0    0.000    0.000    0.000    0.000
 calculate_ecore_self                 1  4.0    0.000    0.000    0.000    0.000
 write_dm_binary_restart              1  6.0    0.000    0.000    0.000    0.000
 topology_generate_molecule_PAR       1  5.0    0.000    0.000    0.000    0.000
 metadyn_read                         1  2.0    0.000    0.000    0.000    0.000
 topology_connectivity_pack_8         1  4.0    0.000    0.000    0.000    0.000
 rs_grid_reorder_ranks                1  8.0    0.000    0.000    0.000    0.000
 topology_coordinate_pack_89          1  4.0    0.000    0.000    0.000    0.000
 topology_coordinate_pack_3           1  4.0    0.000    0.000    0.000    0.000
 scf_env_cleanup                      1  3.0    0.000    0.000    0.000    0.000
 topology_connectivity_pack_1.1       1  4.0    0.000    0.000    0.000    0.000
 topology_connectivity_pack_14_       1  4.0    0.000    0.000    0.000    0.000
 wfn_mix                              1  4.0    0.000    0.000    0.000    0.000
 topology_coordinate_pack_6           1  4.0    0.000    0.000    0.000    0.000
 wfi_create                           1  3.0    0.000    0.000    0.000    0.000
 add_external_potential               1  2.0    0.000    0.000    0.000    0.000
 topology_coordinate_pack_2           1  4.0    0.000    0.000    0.000    0.000
 qs_energies_compute_matrix_w         1  3.0    0.000    0.000    0.000    0.000
 topology_connectivity_pack_13_       1  4.0    0.000    0.000    0.000    0.000
 wannier90_interface                  1  4.0    0.000    0.000    0.000    0.000
 topology_generate_bend               1  4.0    0.000    0.000    0.000    0.000
 qs_scf_post_et                       1  4.0    0.000    0.000    0.000    0.000
 topology_connectivity_pack_12_       1  4.0    0.000    0.000    0.000    0.000
 linres_calculation_low               1  4.0    0.000    0.000    0.000    0.000
 rescale_forces                       1  2.0    0.000    0.000    0.000    0.000
 tddfpt2_control_release              1  2.0    0.000    0.000    0.000    0.000
 cp_result_release                    1  2.0    0.000    0.000    0.000    0.000
 topology_coordinate_pack_4           1  4.0    0.000    0.000    0.000    0.000
 topology_constraint_pack_6           1  4.0    0.000    0.000    0.000    0.000
 fp_env_read                          1  2.0    0.000    0.000    0.000    0.000
 topology_generate_impr               1  4.0    0.000    0.000    0.000    0.000
 topology_generate_ub                 1  4.0    0.000    0.000    0.000    0.000
 check_qs_kind_set                    1  3.0    0.000    0.000    0.000    0.000
 ps_implicit_release                  1  2.0    0.000    0.000    0.000    0.000
 ewald_pw_release                     1  2.0    0.000    0.000    0.000    0.000
 fp_env_create                        1  2.0    0.000    0.000    0.000    0.000
 pw_env_create                        1  5.0    0.000    0.000    0.000    0.000
 scf_env_retain                       1  3.0    0.000    0.000    0.000    0.000
 fp_env_write                         1  2.0    0.000    0.000    0.000    0.000
 energy_correction                    1  3.0    0.000    0.000    0.000    0.000
 clebsch_gordon_deallocate            1  4.0    0.000    0.000    0.000    0.000
 topology_generate_bond_7             1  5.0    0.000    0.000    0.000    0.000
 topology_generate_dihe               1  4.0    0.000    0.000    0.000    0.000
 topology_constraint_pack_2           1  4.0    0.000    0.000    0.000    0.000
 topology_coordinate_pack_10          1  4.0    0.000    0.000    0.000    0.000
 wfi_set_history_variables            1  6.0    0.000    0.000    0.000    0.000
 tddfpt2_control_create               1  3.0    0.000    0.000    0.000    0.000
 -------------------------------------------------------------------------------

 The number of warnings for this run is : 1
 
 -------------------------------------------------------------------------------
  **** **** ******  **  PROGRAM ENDED AT                 2022-03-23 15:29:49.918
 ***** ** ***  *** **   PROGRAM RAN ON                                 nid001768
 **    ****   ******    PROGRAM RAN BY                                   aturner
 ***** **    ** ** **   PROGRAM PROCESS ID                                 18636
  **** **  *******  **  PROGRAM STOPPED IN /mnt/lustre/a2fs-work2/work/z19/z19/a
                                           turner/benchmark/ofi-vs-ucx/CP2K/LiH_
                                           HFX/calc/OFI

#################################################################
#                                                               #
#            CrayPat-lite Performance Statistics                #
#                                                               #
#################################################################

CrayPat/X:  Version 21.02.0 Revision ee5549f05  01/13/21 04:13:58
Experiment:                   lite  lite-samples      
Number of PEs (MPI ranks):   1,024
Numbers of PEs per Node:        32  PEs on each of       32  Nodes
Numbers of Threads per PE:      16  threads on each of   28  PEs
                                17  threads on each of    4  PEs
                                20  threads on each of  485  PEs
                                21  threads on each of   10  PEs
                                22  threads on each of   24  PEs
                                23  threads on each of   30  PEs
                                24  threads on each of  323  PEs
                                25  threads on each of   84  PEs
                                45  threads on each of    4  PEs
                               565  threads on            1  PE
                               570  threads on            1  PE
                               578  threads on            1  PE
                               586  threads on            1  PE
                               592  threads on            1  PE
                               598  threads on            1  PE
                               603  threads on            1  PE
                               609  threads on            1  PE
                               615  threads on            1  PE
                               621  threads on            1  PE
                               627  threads on            1  PE
                               633  threads on            1  PE
                               639  threads on            1  PE
                               645  threads on            1  PE
                               651  threads on            1  PE
                               657  threads on            1  PE
                               663  threads on            1  PE
                               669  threads on            1  PE
                               675  threads on            1  PE
                               681  threads on            1  PE
                               687  threads on            1  PE
                               693  threads on            1  PE
                               699  threads on            1  PE
                               705  threads on            1  PE
                               711  threads on            1  PE
                               717  threads on            1  PE
                               723  threads on            1  PE
                               729  threads on            1  PE
                               735  threads on            1  PE
                               741  threads on            1  PE
                               747  threads on            1  PE
                             1,007  threads on            1  PE
Number of Cores per Socket:     64
Execution start time:  Wed Mar 23 15:21:25 2022
System name and speed:  nid001768  2.250 GHz (nominal)
AMD   Rome                 CPU  Family: 23  Model: 49  Stepping:  0
Core Performance Boost:  43047 PEs have CPB capability



Avg Process Time:      504.56 secs                
High Memory:      2,622,264.5 MiBytes     2,560.8 MiBytes per PE
I/O Read Rate:      23.312453 MiBytes/sec         
I/O Write Rate:      0.224760 MiBytes/sec         
