 DBCSR| CPU Multiplication driver                                           BLAS
 DBCSR| Multrec recursion limit                                              512
 DBCSR| Multiplication stack size                                           1000
 DBCSR| Maximum elements for images                                    UNLIMITED
 DBCSR| Multiplicative factor virtual images                                   1
 DBCSR| Use multiplication densification                                       T
 DBCSR| Multiplication size stacks                                             3
 DBCSR| Use memory pool for CPU allocation                                     F
 DBCSR| Number of 3D layers                                               SINGLE
 DBCSR| Use MPI memory allocation                                              F
 DBCSR| Use RMA algorithm                                                      F
 DBCSR| Use Communication thread                                               T
 DBCSR| Communication thread load                                             75
 DBCSR| MPI: My node id                                                        0
 DBCSR| MPI: Number of nodes                                                4096
 DBCSR| OMP: Current number of threads                                         4
 DBCSR| OMP: Max number of threads                                             4
 DBCSR| Split modifier for TAS multiplication algorithm                  1.0E+00


  **** **** ******  **  PROGRAM STARTED AT               2022-03-23 13:28:06.488
 ***** ** ***  *** **   PROGRAM STARTED ON                             nid001128
 **    ****   ******    PROGRAM STARTED BY                               aturner
 ***** **    ** ** **   PROGRAM PROCESS ID                                 36484
  **** **  *******  **  PROGRAM STARTED IN /mnt/lustre/a2fs-work2/work/z19/z19/a
                                           turner/benchmark/ofi-vs-ucx/CP2K/LiH_
                                           HFX/calc/UCX

 CP2K| version string:                                          CP2K version 8.2
 CP2K| source code revision number:                                  git:310b7ab
 CP2K| cp2kflags: omp libint fftw3 libxc elpa parallel mpi3 scalapack           
 CP2K| is freely available from                            https://www.cp2k.org/
 CP2K| Program compiled at                          Wed 23 Mar 12:19:29 GMT 2022
 CP2K| Program compiled on                                                  ln04
 CP2K| Program compiled for                                              ARCHER2
 CP2K| Data directory path                   /work/y07/shared/cp2k/cp2k-8.1/data
 CP2K| Input file name                                      input_bulk_HFX_3.inp

 GLOBAL| Force Environment number                                              1
 GLOBAL| Basis set file name                                         ./BASIS_OPT
 GLOBAL| Potential file name                                         ./POTENTIAL
 GLOBAL| MM Potential file name                                     MM_POTENTIAL
 GLOBAL| Coordinate file name                                      __STD_INPUT__
 GLOBAL| Method name                                                        CP2K
 GLOBAL| Project name                                                 LiH_bulk_3
 GLOBAL| Run type                                                         ENERGY
 GLOBAL| FFT library                                                       FFTW3
 GLOBAL| Diagonalization library                                            ELPA
 GLOBAL| Minimum number of eigenvectors for ELPA usage                        16
 GLOBAL| Orthonormality check for eigenvectors                          DISABLED
 GLOBAL| Matrix multiplication library                                    SCALAP
 GLOBAL| All-to-all communication in single precision                          F
 GLOBAL| FFTs using library dependent lengths                                  F
 GLOBAL| Grid backend                                                       AUTO
 GLOBAL| Global print level                                               MEDIUM
 GLOBAL| MPI I/O enabled                                                       T
 GLOBAL| Total number of message passing processes                          4096
 GLOBAL| Number of threads for this process                                    4
 GLOBAL| This output is from process                                           0
 GLOBAL| CPU model name                          AMD EPYC 7742 64-Core Processor
 GLOBAL| CPUID                                                              1002

 MEMORY| system memory details [Kb]
 MEMORY|                        rank 0           min           max       average
 MEMORY| MemTotal            263528088     263528084     263528088     263528086
 MEMORY| MemFree             245236892     242547404     248301764     246048044
 MEMORY| Buffers                 26956         18816         34028         23062
 MEMORY| Cached                1594816        663900       5008388       1863066
 MEMORY| Slab                  1781928       1494204       1835444       1728444
 MEMORY| SReclaimable           215008         88328        232228        189530
 MEMORY| MemLikelyFree       247073672     247073672     249076112     248123703


 *** Fundamental physical constants (SI units) ***

 *** Literature: B. J. Mohr and B. N. Taylor,
 ***             CODATA recommended values of the fundamental physical
 ***             constants: 2006, Web Version 5.1
 ***             http://physics.nist.gov/constants

 Speed of light in vacuum [m/s]                             2.99792458000000E+08
 Magnetic constant or permeability of vacuum [N/A**2]       1.25663706143592E-06
 Electric constant or permittivity of vacuum [F/m]          8.85418781762039E-12
 Planck constant (h) [J*s]                                  6.62606896000000E-34
 Planck constant (h-bar) [J*s]                              1.05457162825177E-34
 Elementary charge [C]                                      1.60217648700000E-19
 Electron mass [kg]                                         9.10938215000000E-31
 Electron g factor [ ]                                     -2.00231930436220E+00
 Proton mass [kg]                                           1.67262163700000E-27
 Fine-structure constant                                    7.29735253760000E-03
 Rydberg constant [1/m]                                     1.09737315685270E+07
 Avogadro constant [1/mol]                                  6.02214179000000E+23
 Boltzmann constant [J/K]                                   1.38065040000000E-23
 Atomic mass unit [kg]                                      1.66053878200000E-27
 Bohr radius [m]                                            5.29177208590000E-11

 *** Conversion factors ***

 [u] -> [a.u.]                                              1.82288848426455E+03
 [Angstrom] -> [Bohr] = [a.u.]                              1.88972613288564E+00
 [a.u.] = [Bohr] -> [Angstrom]                              5.29177208590000E-01
 [a.u.] -> [s]                                              2.41888432650478E-17
 [a.u.] -> [fs]                                             2.41888432650478E-02
 [a.u.] -> [J]                                              4.35974393937059E-18
 [a.u.] -> [N]                                              8.23872205491840E-08
 [a.u.] -> [K]                                              3.15774647902944E+05
 [a.u.] -> [kJ/mol]                                         2.62549961709828E+03
 [a.u.] -> [kcal/mol]                                       6.27509468713739E+02
 [a.u.] -> [Pa]                                             2.94210107994716E+13
 [a.u.] -> [bar]                                            2.94210107994716E+08
 [a.u.] -> [atm]                                            2.90362800883016E+08
 [a.u.] -> [eV]                                             2.72113838565563E+01
 [a.u.] -> [Hz]                                             6.57968392072181E+15
 [a.u.] -> [1/cm] (wave numbers)                            2.19474631370540E+05
 [a.u./Bohr**2] -> [1/cm]                                   5.14048714338585E+03
 

 CELL_TOP| Volume [angstrom^3]:                                      1839.166147
 CELL_TOP| Vector a [angstrom    12.252     0.000     0.000   |a| =    12.252000
 CELL_TOP| Vector b [angstrom     0.000    12.252     0.000   |b| =    12.252000
 CELL_TOP| Vector c [angstrom     0.000     0.000    12.252   |c| =    12.252000
 CELL_TOP| Angle (b,c), alpha [degree]:                                90.000000
 CELL_TOP| Angle (a,c), beta  [degree]:                                90.000000
 CELL_TOP| Angle (a,b), gamma [degree]:                                90.000000
 CELL_TOP| Numerically orthorhombic:                                         YES

 GENERATE|  Preliminary Number of Bonds generated:                             0
 GENERATE|  Achieved consistency in connectivity generation.

 CELL| Volume [angstrom^3]:                                          1839.166147
 CELL| Vector a [angstrom]:      12.252     0.000     0.000   |a| =    12.252000
 CELL| Vector b [angstrom]:       0.000    12.252     0.000   |b| =    12.252000
 CELL| Vector c [angstrom]:       0.000     0.000    12.252   |c| =    12.252000
 CELL| Angle (b,c), alpha [degree]:                                    90.000000
 CELL| Angle (a,c), beta  [degree]:                                    90.000000
 CELL| Angle (a,b), gamma [degree]:                                    90.000000
 CELL| Numerically orthorhombic:                                             YES

 CELL_REF| Volume [angstrom^3]:                                      1839.166147
 CELL_REF| Vector a [angstrom    12.252     0.000     0.000   |a| =    12.252000
 CELL_REF| Vector b [angstrom     0.000    12.252     0.000   |b| =    12.252000
 CELL_REF| Vector c [angstrom     0.000     0.000    12.252   |c| =    12.252000
 CELL_REF| Angle (b,c), alpha [degree]:                                90.000000
 CELL_REF| Angle (a,c), beta  [degree]:                                90.000000
 CELL_REF| Angle (a,b), gamma [degree]:                                90.000000
 CELL_REF| Numerically orthorhombic:                                         YES

 *******************************************************************************
 *******************************************************************************
 **                                                                           **
 **     #####                         ##              ##                      **
 **    ##   ##            ##          ##              ##                      **
 **   ##     ##                       ##            ######                    **
 **   ##     ##  ##   ##  ##   #####  ##  ##   ####   ##    #####    #####    **
 **   ##     ##  ##   ##  ##  ##      ## ##   ##      ##   ##   ##  ##   ##   **
 **   ##  ## ##  ##   ##  ##  ##      ####     ###    ##   ######   ######    **
 **    ##  ###   ##   ##  ##  ##      ## ##      ##   ##   ##       ##        **
 **     #######   #####   ##   #####  ##  ##  ####    ##    #####   ##        **
 **           ##                                                    ##        **
 **                                                                           **
 **                                                ... make the atoms dance   **
 **                                                                           **
 **            Copyright (C) by CP2K developers group (2000-2021)             **
 **                      J. Chem. Phys. 152, 194103 (2020)                    **
 **                                                                           **
 *******************************************************************************

 DFT| Spin restricted Kohn-Sham (RKS) calculation                            RKS
 DFT| Multiplicity                                                             1
 DFT| Number of spin states                                                    1
 DFT| Charge                                                                   0
 DFT| Self-interaction correction (SIC)                                       NO
 DFT| Cutoffs: density                                              1.000000E-10
 DFT|          gradient                                             1.000000E-10
 DFT|          tau                                                  1.000000E-10
 DFT|          cutoff_smoothing_range                               0.000000E+00
 DFT| XC density smoothing                                                  NONE
 DFT| XC derivatives                                                          PW
 FUNCTIONAL| NO EXCHANGE-CORRELATION FUNCTIONAL USED.

 QS| Method:                                                                GAPW
 QS| Density plane wave grid type                        NON-SPHERICAL FULLSPACE
 QS| Number of grid levels:                                                    4
 QS| Density cutoff [a.u.]:                                                150.0
 QS| Multi grid cutoff [a.u.]: 1) grid level                               150.0
 QS|                           2) grid level                                50.0
 QS|                           3) grid level                                16.7
 QS|                           4) grid level                                 5.6
 QS| Grid level progression factor:                                          3.0
 QS| Relative density cutoff [a.u.]:                                        25.0
 QS| Interaction thresholds: eps_pgf_orb:                                1.0E-16
 QS|                         eps_filter_matrix:                          0.0E+00
 QS|                         eps_core_charge:                            1.0E-14
 QS|                         eps_rho_gspace:                             1.0E-12
 QS|                         eps_rho_rspace:                             1.0E-12
 QS|                         eps_gvg_rspace:                             1.0E-06
 QS|                         eps_ppl:                                    1.0E-02
 QS|                         eps_ppnl:                                   1.0E-08
 QS| GAPW|                   eps_fit:                                    1.0E-04
 QS| GAPW|                   eps_iso:                                    1.0E-12
 QS| GAPW|                   eps_svd:                                    1.0E-08
 QS| GAPW|                   eps_cpc:                                    1.0E-12
 QS| GAPW|   atom-r-grid: quadrature:                                     GC_LOG
 QS| GAPW|      atom-s-grid:  max l :                                          6
 QS| GAPW|      max_l_rho0 :                                                   2


 ATOMIC KIND INFORMATION

  1. Atomic kind: Li                                    Number of atoms:     108

     Orbital Basis Set                                                      OPT2

       Number of orbital shell sets:                                          19
       Number of orbital shells:                                              19
       Number of primitive Cartesian functions:                               22
       Number of Cartesian basis functions:                                   48
       Number of spherical basis functions:                                   43
       Norm type:                                                              2

       Normalised Cartesian orbitals:

                        Set   Shell   Orbital            Exponent    Coefficient

                          1       1    1s             1336.034059     157.497346

                          2       1    1s              444.299817      68.971106

                          3       1    1s              147.797018      30.210600

                          4       1    1s               49.209451      13.241784

                          5       1    1s               16.428957       5.815909

                          6       1    1s                5.529399       2.569914

                          7       1    1s                1.905282       1.155792

                          8       1    1s                0.700259       0.545574

                          9       1    1s                0.299587       0.288604

                         10       1    1s                0.166363       0.185653

                         11       1    1px               1.570911       2.506857
                         11       1    1py               1.570911       2.506857
                         11       1    1pz               1.570911       2.506857

                         12       1    1px               0.748759       0.992813
                         12       1    1py               0.748759       0.992813
                         12       1    1pz               0.748759       0.992813

                         13       1    1px               0.386141       0.433883
                         13       1    1py               0.386141       0.433883
                         13       1    1pz               0.386141       0.433883

                         14       1    1px               0.226205       0.222366
                         14       1    1py               0.226205       0.222366
                         14       1    1pz               0.226205       0.222366

                         15       1    1dx2              0.779208       1.063661
                         15       1    1dxy              0.779208       1.842314
                         15       1    1dxz              0.779208       1.842314
                         15       1    1dy2              0.779208       1.063661
                         15       1    1dyz              0.779208       1.842314
                         15       1    1dz2              0.779208       1.063661

                         16       1    1dx2              0.407899       0.342671
                         16       1    1dxy              0.407899       0.593523
                         16       1    1dxz              0.407899       0.593523
                         16       1    1dy2              0.407899       0.342671
                         16       1    1dyz              0.407899       0.593523
                         16       1    1dz2              0.407899       0.342671

                         17       1    1fx3              0.737063       0.741037
                         17       1    1fx2y             0.737063       1.657009
                         17       1    1fx2z             0.737063       1.657009
                         17       1    1fxy2             0.737063       1.657009
                         17       1    1fxyz             0.737063       2.870024
                         17       1    1fxz2             0.737063       1.657009
                         17       1    1fy3              0.737063       0.741037
                         17       1    1fy2z             0.737063       1.657009
                         17       1    1fyz2             0.737063       1.657009
                         17       1    1fz3              0.737063       0.741037

                         18       1    1s            70681.000000      77.181651
                                                     13594.000000     137.129824
                                                      3100.400000     260.757508

                         19       1    1px              28.500000      10.037838
                                                         6.640000      14.250477
                         19       1    1py              28.500000      10.037838
                                                         6.640000      14.250477
                         19       1    1pz              28.500000      10.037838
                                                         6.640000      14.250477

       Atomic covalent radius [Angstrom]:                                  1.230

       Atomic van der Waals radius [Angstrom]:                             1.820

     The atoms of this atomic kind are PAW atoms (GAPW):
       Hard Gaussian function radius:                                      1.512
       Rho0 radius:                                                        1.512
       Maximum GTO radius used for PAW projector construction:            24.566

     GAPW Soft Basis Set                                               OPT2_soft

       Number of orbital shell sets:                                          19
       Number of orbital shells:                                              19
       Number of primitive Cartesian functions:                               11
       Number of Cartesian basis functions:                                   48
       Number of spherical basis functions:                                   43
       Norm type:                                                              2

       Normalised Cartesian orbitals:

                        Set   Shell   Orbital            Exponent    Coefficient

                          1       1    1s         

                          2       1    1s         

                          3       1    1s         

                          4       1    1s         

                          5       1    1s         

                          6       1    1s         

                          7       1    1s                1.905282       1.155792

                          8       1    1s                0.700259       0.545574

                          9       1    1s                0.299587       0.288604

                         10       1    1s                0.166363       0.185653

                         11       1    1px               1.570911       2.506857
                         11       1    1py               1.570911       2.506857
                         11       1    1pz               1.570911       2.506857

                         12       1    1px               0.748759       0.992813
                         12       1    1py               0.748759       0.992813
                         12       1    1pz               0.748759       0.992813

                         13       1    1px               0.386141       0.433883
                         13       1    1py               0.386141       0.433883
                         13       1    1pz               0.386141       0.433883

                         14       1    1px               0.226205       0.222366
                         14       1    1py               0.226205       0.222366
                         14       1    1pz               0.226205       0.222366

                         15       1    1dx2              0.779208       1.063661
                         15       1    1dxy              0.779208       1.842314
                         15       1    1dxz              0.779208       1.842314
                         15       1    1dy2              0.779208       1.063661
                         15       1    1dyz              0.779208       1.842314
                         15       1    1dz2              0.779208       1.063661

                         16       1    1dx2              0.407899       0.342671
                         16       1    1dxy              0.407899       0.593523
                         16       1    1dxz              0.407899       0.593523
                         16       1    1dy2              0.407899       0.342671
                         16       1    1dyz              0.407899       0.593523
                         16       1    1dz2              0.407899       0.342671

                         17       1    1fx3              0.737063       0.741037
                         17       1    1fx2y             0.737063       1.657009
                         17       1    1fx2z             0.737063       1.657009
                         17       1    1fxy2             0.737063       1.657009
                         17       1    1fxyz             0.737063       2.870024
                         17       1    1fxz2             0.737063       1.657009
                         17       1    1fy3              0.737063       0.741037
                         17       1    1fy2z             0.737063       1.657009
                         17       1    1fyz2             0.737063       1.657009
                         17       1    1fz3              0.737063       0.741037

                         18       1    1s         

                         19       1    1px        
                         19       1    1py        
                         19       1    1pz        

     AE Potential information for                                            ALL

       Description:                                       All-electron potential
                                          Krack, Parrinello, PCCP 2, 2105 (2000)

       Gaussian exponent of the core charge distribution:               3.125000
       Electronic configuration (s p d ...):                           3   0   0

  2. Atomic kind: H                                     Number of atoms:     108

     Orbital Basis Set                                                      OPT2

       Number of orbital shell sets:                                          12
       Number of orbital shells:                                              12
       Number of primitive Cartesian functions:                               14
       Number of Cartesian basis functions:                                   37
       Number of spherical basis functions:                                   32
       Norm type:                                                              2

       Normalised Cartesian orbitals:

                        Set   Shell   Orbital            Exponent    Coefficient

                          1       1    1s               27.463675       8.550255

                          2       1    1s                6.855926       3.019671

                          3       1    1s                1.767997       1.092751

                          4       1    1s                0.511818       0.431268

                          5       1    1s                0.201675       0.214486

                          6       1    1px               2.124086       3.655151
                          6       1    1py               2.124086       3.655151
                          6       1    1pz               2.124086       3.655151

                          7       1    1px               1.073681       1.557881
                          7       1    1py               1.073681       1.557881
                          7       1    1pz               1.073681       1.557881

                          8       1    1px               0.568387       0.703469
                          8       1    1py               0.568387       0.703469
                          8       1    1pz               0.568387       0.703469

                          9       1    1dx2              0.928338       1.445092
                          9       1    1dxy              0.928338       2.502973
                          9       1    1dxz              0.928338       2.502973
                          9       1    1dy2              0.928338       1.445092
                          9       1    1dyz              0.928338       2.502973
                          9       1    1dz2              0.928338       1.445092

                         10       1    1dx2              0.495830       0.482216
                         10       1    1dxy              0.495830       0.835223
                         10       1    1dxz              0.495830       0.835223
                         10       1    1dy2              0.495830       0.482216
                         10       1    1dyz              0.495830       0.835223
                         10       1    1dz2              0.495830       0.482216

                         11       1    1fx3              1.207348       2.249456
                         11       1    1fx2y             1.207348       5.029937
                         11       1    1fx2z             1.207348       5.029937
                         11       1    1fxy2             1.207348       5.029937
                         11       1    1fxyz             1.207348       8.712106
                         11       1    1fxz2             1.207348       5.029937
                         11       1    1fy3              1.207348       2.249456
                         11       1    1fy2z             1.207348       5.029937
                         11       1    1fyz2             1.207348       5.029937
                         11       1    1fz3              1.207348       2.249456

                         12       1    1s             3079.700000       6.291525
                                                       461.520000      11.778577
                                                       105.060000      20.410428

       Atomic covalent radius [Angstrom]:                                  0.320

       Atomic van der Waals radius [Angstrom]:                             1.090

     The atoms of this atomic kind are PAW atoms (GAPW):
       Hard Gaussian function radius:                                      1.200
       Rho0 radius:                                                        1.200
       Maximum GTO radius used for PAW projector construction:            24.566

     GAPW Soft Basis Set                                               OPT2_soft

       Number of orbital shell sets:                                          12
       Number of orbital shells:                                              12
       Number of primitive Cartesian functions:                                9
       Number of Cartesian basis functions:                                   37
       Number of spherical basis functions:                                   32
       Norm type:                                                              2

       Normalised Cartesian orbitals:

                        Set   Shell   Orbital            Exponent    Coefficient

                          1       1    1s         

                          2       1    1s         

                          3       1    1s                1.767997       1.092751

                          4       1    1s                0.511818       0.431268

                          5       1    1s                0.201675       0.214486

                          6       1    1px               2.124086       3.655151
                          6       1    1py               2.124086       3.655151
                          6       1    1pz               2.124086       3.655151

                          7       1    1px               1.073681       1.557881
                          7       1    1py               1.073681       1.557881
                          7       1    1pz               1.073681       1.557881

                          8       1    1px               0.568387       0.703469
                          8       1    1py               0.568387       0.703469
                          8       1    1pz               0.568387       0.703469

                          9       1    1dx2              0.928338       1.445092
                          9       1    1dxy              0.928338       2.502973
                          9       1    1dxz              0.928338       2.502973
                          9       1    1dy2              0.928338       1.445092
                          9       1    1dyz              0.928338       2.502973
                          9       1    1dz2              0.928338       1.445092

                         10       1    1dx2              0.495830       0.482216
                         10       1    1dxy              0.495830       0.835223
                         10       1    1dxz              0.495830       0.835223
                         10       1    1dy2              0.495830       0.482216
                         10       1    1dyz              0.495830       0.835223
                         10       1    1dz2              0.495830       0.482216

                         11       1    1fx3              1.207348       2.249456
                         11       1    1fx2y             1.207348       5.029937
                         11       1    1fx2z             1.207348       5.029937
                         11       1    1fxy2             1.207348       5.029937
                         11       1    1fxyz             1.207348       8.712106
                         11       1    1fxz2             1.207348       5.029937
                         11       1    1fy3              1.207348       2.249456
                         11       1    1fy2z             1.207348       5.029937
                         11       1    1fyz2             1.207348       5.029937
                         11       1    1fz3              1.207348       2.249456

                         12       1    1s         

     AE Potential information for                                            ALL

       Description:                                       All-electron potential
                                          Krack, Parrinello, PCCP 2, 2105 (2000)

       Gaussian exponent of the core charge distribution:              12.500000
       Electronic configuration (s p d ...):                           1   0   0


 MOLECULE KIND INFORMATION


 All atoms are their own molecule, skipping detailed information


 TOTAL NUMBERS AND MAXIMUM NUMBERS

  Total number of            - Atomic kinds:                                   2
                             - Atoms:                                        216
                             - Shell sets:                                  3348
                             - Shells:                                      3348
                             - Primitive Cartesian functions:               3888
                             - Cartesian basis functions:                   9180
                             - Spherical basis functions:                   8100

  Maximum angular momentum of the orbital basis functions:                     3


 MODULE QUICKSTEP:  ATOMIC COORDINATES IN angstrom

  Atom  Kind  Element       X           Y           Z          Z(eff)       Mass

       1     1 Li   3    0.000000    0.000000    0.000000      3.0000       6.9410
       2     1 Li   3    2.042000    2.042000    0.000000      3.0000       6.9410
       3     1 Li   3    2.042000    0.000000    2.042000      3.0000       6.9410
       4     1 Li   3    0.000000    2.042000    2.042000      3.0000       6.9410
       5     2 H    1    0.000000    2.042000    0.000000      1.0000       1.0079
       6     2 H    1    0.000000    0.000000    2.042000      1.0000       1.0079
       7     2 H    1    2.042000    0.000000    0.000000      1.0000       1.0079
       8     2 H    1    2.042000    2.042000    2.042000      1.0000       1.0079
       9     1 Li   3    0.000000    0.000000    4.084000      3.0000       6.9410
      10     1 Li   3    2.042000    2.042000    4.084000      3.0000       6.9410
      11     1 Li   3    2.042000    0.000000    6.126000      3.0000       6.9410
      12     1 Li   3    0.000000    2.042000    6.126000      3.0000       6.9410
      13     2 H    1    0.000000    2.042000    4.084000      1.0000       1.0079
      14     2 H    1    0.000000    0.000000    6.126000      1.0000       1.0079
      15     2 H    1    2.042000    0.000000    4.084000      1.0000       1.0079
      16     2 H    1    2.042000    2.042000    6.126000      1.0000       1.0079
      17     1 Li   3    0.000000    0.000000    8.168000      3.0000       6.9410
      18     1 Li   3    2.042000    2.042000    8.168000      3.0000       6.9410
      19     1 Li   3    2.042000    0.000000   10.210000      3.0000       6.9410
      20     1 Li   3    0.000000    2.042000   10.210000      3.0000       6.9410
      21     2 H    1    0.000000    2.042000    8.168000      1.0000       1.0079
      22     2 H    1    0.000000    0.000000   10.210000      1.0000       1.0079
      23     2 H    1    2.042000    0.000000    8.168000      1.0000       1.0079
      24     2 H    1    2.042000    2.042000   10.210000      1.0000       1.0079
      25     1 Li   3    0.000000    4.084000    0.000000      3.0000       6.9410
      26     1 Li   3    2.042000    6.126000    0.000000      3.0000       6.9410
      27     1 Li   3    2.042000    4.084000    2.042000      3.0000       6.9410
      28     1 Li   3    0.000000    6.126000    2.042000      3.0000       6.9410
      29     2 H    1    0.000000    6.126000    0.000000      1.0000       1.0079
      30     2 H    1    0.000000    4.084000    2.042000      1.0000       1.0079
      31     2 H    1    2.042000    4.084000    0.000000      1.0000       1.0079
      32     2 H    1    2.042000    6.126000    2.042000      1.0000       1.0079
      33     1 Li   3    0.000000    4.084000    4.084000      3.0000       6.9410
      34     1 Li   3    2.042000    6.126000    4.084000      3.0000       6.9410
      35     1 Li   3    2.042000    4.084000    6.126000      3.0000       6.9410
      36     1 Li   3    0.000000    6.126000    6.126000      3.0000       6.9410
      37     2 H    1    0.000000    6.126000    4.084000      1.0000       1.0079
      38     2 H    1    0.000000    4.084000    6.126000      1.0000       1.0079
      39     2 H    1    2.042000    4.084000    4.084000      1.0000       1.0079
      40     2 H    1    2.042000    6.126000    6.126000      1.0000       1.0079
      41     1 Li   3    0.000000    4.084000    8.168000      3.0000       6.9410
      42     1 Li   3    2.042000    6.126000    8.168000      3.0000       6.9410
      43     1 Li   3    2.042000    4.084000   10.210000      3.0000       6.9410
      44     1 Li   3    0.000000    6.126000   10.210000      3.0000       6.9410
      45     2 H    1    0.000000    6.126000    8.168000      1.0000       1.0079
      46     2 H    1    0.000000    4.084000   10.210000      1.0000       1.0079
      47     2 H    1    2.042000    4.084000    8.168000      1.0000       1.0079
      48     2 H    1    2.042000    6.126000   10.210000      1.0000       1.0079
      49     1 Li   3    0.000000    8.168000    0.000000      3.0000       6.9410
      50     1 Li   3    2.042000   10.210000    0.000000      3.0000       6.9410
      51     1 Li   3    2.042000    8.168000    2.042000      3.0000       6.9410
      52     1 Li   3    0.000000   10.210000    2.042000      3.0000       6.9410
      53     2 H    1    0.000000   10.210000    0.000000      1.0000       1.0079
      54     2 H    1    0.000000    8.168000    2.042000      1.0000       1.0079
      55     2 H    1    2.042000    8.168000    0.000000      1.0000       1.0079
      56     2 H    1    2.042000   10.210000    2.042000      1.0000       1.0079
      57     1 Li   3    0.000000    8.168000    4.084000      3.0000       6.9410
      58     1 Li   3    2.042000   10.210000    4.084000      3.0000       6.9410
      59     1 Li   3    2.042000    8.168000    6.126000      3.0000       6.9410
      60     1 Li   3    0.000000   10.210000    6.126000      3.0000       6.9410
      61     2 H    1    0.000000   10.210000    4.084000      1.0000       1.0079
      62     2 H    1    0.000000    8.168000    6.126000      1.0000       1.0079
      63     2 H    1    2.042000    8.168000    4.084000      1.0000       1.0079
      64     2 H    1    2.042000   10.210000    6.126000      1.0000       1.0079
      65     1 Li   3    0.000000    8.168000    8.168000      3.0000       6.9410
      66     1 Li   3    2.042000   10.210000    8.168000      3.0000       6.9410
      67     1 Li   3    2.042000    8.168000   10.210000      3.0000       6.9410
      68     1 Li   3    0.000000   10.210000   10.210000      3.0000       6.9410
      69     2 H    1    0.000000   10.210000    8.168000      1.0000       1.0079
      70     2 H    1    0.000000    8.168000   10.210000      1.0000       1.0079
      71     2 H    1    2.042000    8.168000    8.168000      1.0000       1.0079
      72     2 H    1    2.042000   10.210000   10.210000      1.0000       1.0079
      73     1 Li   3    4.084000    0.000000    0.000000      3.0000       6.9410
      74     1 Li   3    6.126000    2.042000    0.000000      3.0000       6.9410
      75     1 Li   3    6.126000    0.000000    2.042000      3.0000       6.9410
      76     1 Li   3    4.084000    2.042000    2.042000      3.0000       6.9410
      77     2 H    1    4.084000    2.042000    0.000000      1.0000       1.0079
      78     2 H    1    4.084000    0.000000    2.042000      1.0000       1.0079
      79     2 H    1    6.126000    0.000000    0.000000      1.0000       1.0079
      80     2 H    1    6.126000    2.042000    2.042000      1.0000       1.0079
      81     1 Li   3    4.084000    0.000000    4.084000      3.0000       6.9410
      82     1 Li   3    6.126000    2.042000    4.084000      3.0000       6.9410
      83     1 Li   3    6.126000    0.000000    6.126000      3.0000       6.9410
      84     1 Li   3    4.084000    2.042000    6.126000      3.0000       6.9410
      85     2 H    1    4.084000    2.042000    4.084000      1.0000       1.0079
      86     2 H    1    4.084000    0.000000    6.126000      1.0000       1.0079
      87     2 H    1    6.126000    0.000000    4.084000      1.0000       1.0079
      88     2 H    1    6.126000    2.042000    6.126000      1.0000       1.0079
      89     1 Li   3    4.084000    0.000000    8.168000      3.0000       6.9410
      90     1 Li   3    6.126000    2.042000    8.168000      3.0000       6.9410
      91     1 Li   3    6.126000    0.000000   10.210000      3.0000       6.9410
      92     1 Li   3    4.084000    2.042000   10.210000      3.0000       6.9410
      93     2 H    1    4.084000    2.042000    8.168000      1.0000       1.0079
      94     2 H    1    4.084000    0.000000   10.210000      1.0000       1.0079
      95     2 H    1    6.126000    0.000000    8.168000      1.0000       1.0079
      96     2 H    1    6.126000    2.042000   10.210000      1.0000       1.0079
      97     1 Li   3    4.084000    4.084000    0.000000      3.0000       6.9410
      98     1 Li   3    6.126000    6.126000    0.000000      3.0000       6.9410
      99     1 Li   3    6.126000    4.084000    2.042000      3.0000       6.9410
     100     1 Li   3    4.084000    6.126000    2.042000      3.0000       6.9410
     101     2 H    1    4.084000    6.126000    0.000000      1.0000       1.0079
     102     2 H    1    4.084000    4.084000    2.042000      1.0000       1.0079
     103     2 H    1    6.126000    4.084000    0.000000      1.0000       1.0079
     104     2 H    1    6.126000    6.126000    2.042000      1.0000       1.0079
     105     1 Li   3    4.084000    4.084000    4.084000      3.0000       6.9410
     106     1 Li   3    6.126000    6.126000    4.084000      3.0000       6.9410
     107     1 Li   3    6.126000    4.084000    6.126000      3.0000       6.9410
     108     1 Li   3    4.084000    6.126000    6.126000      3.0000       6.9410
     109     2 H    1    4.084000    6.126000    4.084000      1.0000       1.0079
     110     2 H    1    4.084000    4.084000    6.126000      1.0000       1.0079
     111     2 H    1    6.126000    4.084000    4.084000      1.0000       1.0079
     112     2 H    1    6.126000    6.126000    6.126000      1.0000       1.0079
     113     1 Li   3    4.084000    4.084000    8.168000      3.0000       6.9410
     114     1 Li   3    6.126000    6.126000    8.168000      3.0000       6.9410
     115     1 Li   3    6.126000    4.084000   10.210000      3.0000       6.9410
     116     1 Li   3    4.084000    6.126000   10.210000      3.0000       6.9410
     117     2 H    1    4.084000    6.126000    8.168000      1.0000       1.0079
     118     2 H    1    4.084000    4.084000   10.210000      1.0000       1.0079
     119     2 H    1    6.126000    4.084000    8.168000      1.0000       1.0079
     120     2 H    1    6.126000    6.126000   10.210000      1.0000       1.0079
     121     1 Li   3    4.084000    8.168000    0.000000      3.0000       6.9410
     122     1 Li   3    6.126000   10.210000    0.000000      3.0000       6.9410
     123     1 Li   3    6.126000    8.168000    2.042000      3.0000       6.9410
     124     1 Li   3    4.084000   10.210000    2.042000      3.0000       6.9410
     125     2 H    1    4.084000   10.210000    0.000000      1.0000       1.0079
     126     2 H    1    4.084000    8.168000    2.042000      1.0000       1.0079
     127     2 H    1    6.126000    8.168000    0.000000      1.0000       1.0079
     128     2 H    1    6.126000   10.210000    2.042000      1.0000       1.0079
     129     1 Li   3    4.084000    8.168000    4.084000      3.0000       6.9410
     130     1 Li   3    6.126000   10.210000    4.084000      3.0000       6.9410
     131     1 Li   3    6.126000    8.168000    6.126000      3.0000       6.9410
     132     1 Li   3    4.084000   10.210000    6.126000      3.0000       6.9410
     133     2 H    1    4.084000   10.210000    4.084000      1.0000       1.0079
     134     2 H    1    4.084000    8.168000    6.126000      1.0000       1.0079
     135     2 H    1    6.126000    8.168000    4.084000      1.0000       1.0079
     136     2 H    1    6.126000   10.210000    6.126000      1.0000       1.0079
     137     1 Li   3    4.084000    8.168000    8.168000      3.0000       6.9410
     138     1 Li   3    6.126000   10.210000    8.168000      3.0000       6.9410
     139     1 Li   3    6.126000    8.168000   10.210000      3.0000       6.9410
     140     1 Li   3    4.084000   10.210000   10.210000      3.0000       6.9410
     141     2 H    1    4.084000   10.210000    8.168000      1.0000       1.0079
     142     2 H    1    4.084000    8.168000   10.210000      1.0000       1.0079
     143     2 H    1    6.126000    8.168000    8.168000      1.0000       1.0079
     144     2 H    1    6.126000   10.210000   10.210000      1.0000       1.0079
     145     1 Li   3    8.168000    0.000000    0.000000      3.0000       6.9410
     146     1 Li   3   10.210000    2.042000    0.000000      3.0000       6.9410
     147     1 Li   3   10.210000    0.000000    2.042000      3.0000       6.9410
     148     1 Li   3    8.168000    2.042000    2.042000      3.0000       6.9410
     149     2 H    1    8.168000    2.042000    0.000000      1.0000       1.0079
     150     2 H    1    8.168000    0.000000    2.042000      1.0000       1.0079
     151     2 H    1   10.210000    0.000000    0.000000      1.0000       1.0079
     152     2 H    1   10.210000    2.042000    2.042000      1.0000       1.0079
     153     1 Li   3    8.168000    0.000000    4.084000      3.0000       6.9410
     154     1 Li   3   10.210000    2.042000    4.084000      3.0000       6.9410
     155     1 Li   3   10.210000    0.000000    6.126000      3.0000       6.9410
     156     1 Li   3    8.168000    2.042000    6.126000      3.0000       6.9410
     157     2 H    1    8.168000    2.042000    4.084000      1.0000       1.0079
     158     2 H    1    8.168000    0.000000    6.126000      1.0000       1.0079
     159     2 H    1   10.210000    0.000000    4.084000      1.0000       1.0079
     160     2 H    1   10.210000    2.042000    6.126000      1.0000       1.0079
     161     1 Li   3    8.168000    0.000000    8.168000      3.0000       6.9410
     162     1 Li   3   10.210000    2.042000    8.168000      3.0000       6.9410
     163     1 Li   3   10.210000    0.000000   10.210000      3.0000       6.9410
     164     1 Li   3    8.168000    2.042000   10.210000      3.0000       6.9410
     165     2 H    1    8.168000    2.042000    8.168000      1.0000       1.0079
     166     2 H    1    8.168000    0.000000   10.210000      1.0000       1.0079
     167     2 H    1   10.210000    0.000000    8.168000      1.0000       1.0079
     168     2 H    1   10.210000    2.042000   10.210000      1.0000       1.0079
     169     1 Li   3    8.168000    4.084000    0.000000      3.0000       6.9410
     170     1 Li   3   10.210000    6.126000    0.000000      3.0000       6.9410
     171     1 Li   3   10.210000    4.084000    2.042000      3.0000       6.9410
     172     1 Li   3    8.168000    6.126000    2.042000      3.0000       6.9410
     173     2 H    1    8.168000    6.126000    0.000000      1.0000       1.0079
     174     2 H    1    8.168000    4.084000    2.042000      1.0000       1.0079
     175     2 H    1   10.210000    4.084000    0.000000      1.0000       1.0079
     176     2 H    1   10.210000    6.126000    2.042000      1.0000       1.0079
     177     1 Li   3    8.168000    4.084000    4.084000      3.0000       6.9410
     178     1 Li   3   10.210000    6.126000    4.084000      3.0000       6.9410
     179     1 Li   3   10.210000    4.084000    6.126000      3.0000       6.9410
     180     1 Li   3    8.168000    6.126000    6.126000      3.0000       6.9410
     181     2 H    1    8.168000    6.126000    4.084000      1.0000       1.0079
     182     2 H    1    8.168000    4.084000    6.126000      1.0000       1.0079
     183     2 H    1   10.210000    4.084000    4.084000      1.0000       1.0079
     184     2 H    1   10.210000    6.126000    6.126000      1.0000       1.0079
     185     1 Li   3    8.168000    4.084000    8.168000      3.0000       6.9410
     186     1 Li   3   10.210000    6.126000    8.168000      3.0000       6.9410
     187     1 Li   3   10.210000    4.084000   10.210000      3.0000       6.9410
     188     1 Li   3    8.168000    6.126000   10.210000      3.0000       6.9410
     189     2 H    1    8.168000    6.126000    8.168000      1.0000       1.0079
     190     2 H    1    8.168000    4.084000   10.210000      1.0000       1.0079
     191     2 H    1   10.210000    4.084000    8.168000      1.0000       1.0079
     192     2 H    1   10.210000    6.126000   10.210000      1.0000       1.0079
     193     1 Li   3    8.168000    8.168000    0.000000      3.0000       6.9410
     194     1 Li   3   10.210000   10.210000    0.000000      3.0000       6.9410
     195     1 Li   3   10.210000    8.168000    2.042000      3.0000       6.9410
     196     1 Li   3    8.168000   10.210000    2.042000      3.0000       6.9410
     197     2 H    1    8.168000   10.210000    0.000000      1.0000       1.0079
     198     2 H    1    8.168000    8.168000    2.042000      1.0000       1.0079
     199     2 H    1   10.210000    8.168000    0.000000      1.0000       1.0079
     200     2 H    1   10.210000   10.210000    2.042000      1.0000       1.0079
     201     1 Li   3    8.168000    8.168000    4.084000      3.0000       6.9410
     202     1 Li   3   10.210000   10.210000    4.084000      3.0000       6.9410
     203     1 Li   3   10.210000    8.168000    6.126000      3.0000       6.9410
     204     1 Li   3    8.168000   10.210000    6.126000      3.0000       6.9410
     205     2 H    1    8.168000   10.210000    4.084000      1.0000       1.0079
     206     2 H    1    8.168000    8.168000    6.126000      1.0000       1.0079
     207     2 H    1   10.210000    8.168000    4.084000      1.0000       1.0079
     208     2 H    1   10.210000   10.210000    6.126000      1.0000       1.0079
     209     1 Li   3    8.168000    8.168000    8.168000      3.0000       6.9410
     210     1 Li   3   10.210000   10.210000    8.168000      3.0000       6.9410
     211     1 Li   3   10.210000    8.168000   10.210000      3.0000       6.9410
     212     1 Li   3    8.168000   10.210000   10.210000      3.0000       6.9410
     213     2 H    1    8.168000   10.210000    8.168000      1.0000       1.0079
     214     2 H    1    8.168000    8.168000   10.210000      1.0000       1.0079
     215     2 H    1   10.210000    8.168000    8.168000      1.0000       1.0079
     216     2 H    1   10.210000   10.210000   10.210000      1.0000       1.0079




 SCF PARAMETERS         Density guess:                                   RESTART
                        --------------------------------------------------------
                        max_scf:                                              20
                        max_scf_history:                                       0
                        max_diis:                                              4
                        --------------------------------------------------------
                        eps_scf:                                        1.00E-06
                        eps_scf_history:                                0.00E+00
                        eps_diis:                                       1.00E-01
                        eps_eigval:                                     1.00E-05
                        --------------------------------------------------------
                        level_shift [a.u.]:                                 0.00
                        --------------------------------------------------------
                        No outer SCF

 PW_GRID| Information for grid number                                          1
 PW_GRID| Grid distributed over                                  4096 processors
 PW_GRID| Real space group dimensions                                    64   64
 PW_GRID| the grid is blocked:                                               YES
 PW_GRID| Cutoff [a.u.]                                                    150.0
 PW_GRID| spherical cutoff:                                                   NO
 PW_GRID|   Bounds   1            -64      63                Points:         128
 PW_GRID|   Bounds   2            -64      63                Points:         128
 PW_GRID|   Bounds   3            -64      63                Points:         128
 PW_GRID| Volume element (a.u.^3)  0.5918E-02     Volume (a.u.^3)     12411.3085
 PW_GRID| Grid span                                                    FULLSPACE
 PW_GRID|   Distribution                         Average         Max         Min
 PW_GRID|   G-Vectors                              512.0         512         512
 PW_GRID|   G-Rays                                   4.0           4           4
 PW_GRID|   Real Space Points                      512.0         512         512

 PW_GRID| Information for grid number                                          2
 PW_GRID| Number of the reference grid                                         1
 PW_GRID| Grid distributed over                                  4096 processors
 PW_GRID| Real space group dimensions                                    64   64
 PW_GRID| the grid is blocked:                                                NO
 PW_GRID| Cutoff [a.u.]                                                     50.0
 PW_GRID| spherical cutoff:                                                   NO
 PW_GRID|   Bounds   1            -37      37                Points:          75
 PW_GRID|   Bounds   2            -37      37                Points:          75
 PW_GRID|   Bounds   3            -37      37                Points:          75
 PW_GRID| Volume element (a.u.^3)  0.2942E-01     Volume (a.u.^3)     12411.3085
 PW_GRID| Grid span                                                    FULLSPACE
 PW_GRID|   Distribution                         Average         Max         Min
 PW_GRID|   G-Vectors                              103.0         300           0
 PW_GRID|   G-Rays                                   1.4           4           0
 PW_GRID|   Real Space Points                      103.0         300          75

 PW_GRID| Information for grid number                                          3
 PW_GRID| Number of the reference grid                                         1
 PW_GRID| Grid distributed over                                  4096 processors
 PW_GRID| Real space group dimensions                                    64   64
 PW_GRID| the grid is blocked:                                                NO
 PW_GRID| Cutoff [a.u.]                                                     16.7
 PW_GRID| spherical cutoff:                                                   NO
 PW_GRID|   Bounds   1            -22      22                Points:          45
 PW_GRID|   Bounds   2            -22      22                Points:          45
 PW_GRID|   Bounds   3            -22      22                Points:          45
 PW_GRID| Volume element (a.u.^3)  0.1362         Volume (a.u.^3)     12411.3085
 PW_GRID| Grid span                                                    FULLSPACE
 PW_GRID|   Distribution                         Average         Max         Min
 PW_GRID|   G-Vectors                               22.2         180           0
 PW_GRID|   G-Rays                                   0.5           4           0
 PW_GRID|   Real Space Points                       22.2          45           0

 PW_GRID| Information for grid number                                          4
 PW_GRID| Number of the reference grid                                         1
 PW_GRID| Grid distributed over                                  4096 processors
 PW_GRID| Real space group dimensions                                    64   64
 PW_GRID| the grid is blocked:                                                NO
 PW_GRID| Cutoff [a.u.]                                                      5.6
 PW_GRID| spherical cutoff:                                                   NO
 PW_GRID|   Bounds   1            -12      12                Points:          25
 PW_GRID|   Bounds   2            -12      12                Points:          25
 PW_GRID|   Bounds   3            -12      12                Points:          25
 PW_GRID| Volume element (a.u.^3)  0.7943         Volume (a.u.^3)     12411.3085
 PW_GRID| Grid span                                                    FULLSPACE
 PW_GRID|   Distribution                         Average         Max         Min
 PW_GRID|   G-Vectors                                3.8         100           0
 PW_GRID|   G-Rays                                   0.2           4           0
 PW_GRID|   Real Space Points                        3.8          25           0

 POISSON| Solver                                                        PERIODIC
 POISSON| Periodicity                                                        XYZ

 RS_GRID| Information for grid number                                          1
 RS_GRID|   Bounds   1            -64      63                Points:         128
 RS_GRID|   Bounds   2            -64      63                Points:         128
 RS_GRID|   Bounds   3            -64      63                Points:         128
 RS_GRID| Real space distribution over                                 16 groups
 RS_GRID| Real space distribution along direction                              1
 RS_GRID| Border size                                                         25
 RS_GRID| Real space distribution over                                 16 groups
 RS_GRID| Real space distribution along direction                              2
 RS_GRID| Border size                                                         25
 RS_GRID| Real space distribution over                                 16 groups
 RS_GRID| Real space distribution along direction                              3
 RS_GRID| Border size                                                         25
 RS_GRID|   Distribution                         Average         Max         Min
 RS_GRID|   Planes                                  58.0          58          58
 RS_GRID|   Distribution                         Average         Max         Min
 RS_GRID|   Planes                                  58.0          58          58
 RS_GRID|   Distribution                         Average         Max         Min
 RS_GRID|   Planes                                  58.0          58          58

 RS_GRID| Information for grid number                                          2
 RS_GRID|   Bounds   1            -37      37                Points:          75
 RS_GRID|   Bounds   2            -37      37                Points:          75
 RS_GRID|   Bounds   3            -37      37                Points:          75
 RS_GRID| Real space distribution over                                 16 groups
 RS_GRID| Real space distribution along direction                              1
 RS_GRID| Border size                                                         25
 RS_GRID| Real space distribution over                                 16 groups
 RS_GRID| Real space distribution along direction                              2
 RS_GRID| Border size                                                         25
 RS_GRID| Real space distribution over                                 16 groups
 RS_GRID| Real space distribution along direction                              3
 RS_GRID| Border size                                                         25
 RS_GRID|   Distribution                         Average         Max         Min
 RS_GRID|   Planes                                  54.7          55          54
 RS_GRID|   Distribution                         Average         Max         Min
 RS_GRID|   Planes                                  54.7          55          54
 RS_GRID|   Distribution                         Average         Max         Min
 RS_GRID|   Planes                                  54.7          55          54

 RS_GRID| Information for grid number                                          3
 RS_GRID|   Bounds   1            -22      22                Points:          45
 RS_GRID|   Bounds   2            -22      22                Points:          45
 RS_GRID|   Bounds   3            -22      22                Points:          45
 RS_GRID| Real space fully replicated
 RS_GRID| Group size                                                           1

 RS_GRID| Information for grid number                                          4
 RS_GRID|   Bounds   1            -12      12                Points:          25
 RS_GRID|   Bounds   2            -12      12                Points:          25
 RS_GRID|   Bounds   3            -12      12                Points:          25
 RS_GRID| Real space fully replicated
 RS_GRID| Group size                                                           1

  HFX_INFO| Replica ID:                                                        1
  HFX_INFO| FRACTION:                                               1.0000000000
  HFX_INFO| Interaction Potential:                                     TRUNCATED
  HFX_INFO| Cutoff Radius [angstrom]:                               6.0000000000
  HFX_INFO| EPS_SCHWARZ:                                                 1.0E-09
  HFX_INFO| EPS_SCHWARZ_FORCES                                           1.0E-09
  HFX_INFO| EPS_STORAGE_SCALING:                                         1.0E-01
  HFX_INFO| NBINS:                                                            64
  HFX_INFO| BLOCK_SIZE:                                                        1
  HFX_INFO| NUMBER_OF_SHELLS:                                               AUTO
  HFX_INFO| Number of periodic shells considered:                             -1
  HFX_INFO| Number of periodic cells considered:                              27


 Number of electrons:                                                        432
 Number of occupied orbitals:                                                216
 Number of molecular orbitals:                                               216

 Number of orbital functions:                                               8100
 Number of independent orbital functions:                                   8100

 Extrapolation method: initial_guess


 SCF WAVEFUNCTION OPTIMIZATION

  ----------------------------------- OT ---------------------------------------
  Minimizer      : CG                  : conjugate gradient
  Preconditioner : FULL_ALL            : diagonalization, state selective
  Precond_solver : DEFAULT
  Line search    : 2PNT                : 2 energies, one gradient
  stepsize       :    0.15000000                  energy_gap     :    0.08000000
  eps_taylor     :   0.10000E-15                  max_taylor     :             4
  ----------------------------------- OT ---------------------------------------

  Step     Update method      Time    Convergence         Total energy    Change
  ------------------------------------------------------------------------------

  HFX_MEM_INFO| Est. max. program size before HFX [MiB]:                     329
  HFX_MEM_INFO| Number of cart. primitive ERI's calculated:       18728082069295
  HFX_MEM_INFO| Number of sph. ERI's calculated:                   4747425803902
  HFX_MEM_INFO| Number of sph. ERI's stored in-core:               3559832631419
  HFX_MEM_INFO| Number of sph. ERI's stored on disk:                           0
  HFX_MEM_INFO| Number of sph. ERI's calculated on the fly:                    0
  HFX_MEM_INFO| Total memory consumption ERI's RAM [MiB]:                3844824
  HFX_MEM_INFO| Whereof max-vals [MiB]:                                    58262
  HFX_MEM_INFO| Total compression factor ERI's RAM:                         7.06
  HFX_MEM_INFO| Total memory consumption ERI's disk [MiB]:                     0
  HFX_MEM_INFO| Total compression factor ERI's disk:                        0.00
  HFX_MEM_INFO| Size of density/Fock matrix [MiB]:                           502
  HFX_MEM_INFO| Size of buffers [MiB]:                                        66
  HFX_MEM_INFO| Number of periodic image cells considered:                    27
  HFX_MEM_INFO| Est. max. program size after HFX  [MiB]:                    2154

     1 OT CG       0.15E+00  243.0     0.03456908      -870.3838135131 -8.70E+02
     2 OT LS       0.15E-02    5.2                   203627.3775568279
     3 OT CG       0.15E-02    5.3   131.97956500      1608.5496210301  2.48E+03
     4 OT LS       0.74E-03    5.2                   680761.2440647363
     5 OT CG       0.74E-03    5.4  1018.94304557    625830.6049196528  6.24E+05
     6 OT LS       0.37E-03    5.2                   648437.5986940085
     7 OT CG       0.37E-03    5.4   986.17770884    635608.1409792098  9.78E+03
     8 OT LS       0.18E-03    5.2                   625687.9610854116
     9 OT CG       0.18E-03    5.4   974.68040240    596634.2035841100 -3.90E+04
    10 OT LS       0.92E-04    5.2                   603873.7464492768
    11 OT CG       0.92E-04    5.5   981.68310341    657200.5720485852  6.06E+04
    12 OT LS       0.46E-04    5.3                   619816.0803556846
    13 OT CG       0.46E-04    5.5  1010.91990673    583022.5685742064 -7.42E+04
    14 OT LS       0.23E-04    5.3                   640242.8516901941
    15 OT CG       0.23E-04    5.5   989.88691252    593576.0067372324  1.06E+04
    16 OT LS       0.12E-04    5.2                   613191.8132018707
    17 OT CG       0.12E-04    5.5   962.92772240    643630.6183840409  5.01E+04
    18 OT LS       0.58E-05    5.3                   631456.6673042180
    19 OT CG       0.58E-05    5.5   994.94414173    668353.8068160372  2.47E+04
    20 OT LS       0.29E-05    5.3                   588777.0925778967

  Leaving inner SCF loop after reaching    20 steps.


  Electronic density on regular grids:       -348.1372562345       83.8627437655
  Core density on regular grids:              432.0000000000       -0.0000000000
  Hard and soft densities (Lebedev):         -852.9183541022     -769.2396785250
  Total Rho_soft + Rho1_hard - Rho1_soft     -431.8159318117
  Total charge density (r-space):               0.1840681882
  Total Rho_soft + Rho0_soft (g-space):         0.1445784874

  Overlap energy of the core charge distribution:               0.00000000000000
  Self energy of the core charge distribution:               -837.82153156841810
  Core Hamiltonian energy:                                 588799.66265888081398
  Hartree energy:                                             420.44488677096172
  Exchange-correlation energy:                                  0.00000000000000
  Hartree-Fock Exchange energy:                              -366.57406013779121

  GAPW| Exc from hard and soft atomic rho1:                     0.00000000000000
  GAPW| local Eh = 1 center integrals:                        761.38062395123529

  Total energy:                                            588777.09257789666299

 *** WARNING in qs_scf.F:576 :: SCF run NOT converged ***


 !-----------------------------------------------------------------------------!
                     Mulliken Population Analysis

 #  Atom  Element  Kind  Atomic population                           Net charge
       1     Li       1          2.524757                              0.475243
       2     Li       1          2.008304                              0.991696
       3     Li       1          1.942566                              1.057434
       4     Li       1          2.306888                              0.693112
       5     H        2          0.825867                              0.174133
       6     H        2          0.868873                              0.131127
       7     H        2          0.978176                              0.021824
       8     H        2          0.986994                              0.013006
       9     Li       1          2.149172                              0.850828
      10     Li       1          1.897790                              1.102210
      11     Li       1          2.067975                              0.932025
      12     Li       1          2.149830                              0.850170
      13     H        2          0.750016                              0.249984
      14     H        2          1.086577                             -0.086577
      15     H        2          0.904287                              0.095713
      16     H        2          0.864937                              0.135063
      17     Li       1          2.716862                              0.283138
      18     Li       1          1.996232                              1.003768
      19     Li       1          2.170757                              0.829243
      20     Li       1          1.980500                              1.019500
      21     H        2          0.837748                              0.162252
      22     H        2          1.378880                             -0.378880
      23     H        2          0.899457                              0.100543
      24     H        2          0.975385                              0.024615
      25     Li       1          2.185580                              0.814420
      26     Li       1          2.218719                              0.781281
      27     Li       1          1.970696                              1.029304
      28     Li       1          2.271768                              0.728232
      29     H        2          0.793764                              0.206236
      30     H        2          0.713794                              0.286206
      31     H        2          0.767049                              0.232951
      32     H        2          0.798545                              0.201455
      33     Li       1          2.379426                              0.620574
      34     Li       1          2.210811                              0.789189
      35     Li       1          2.056411                              0.943589
      36     Li       1          2.745351                              0.254649
      37     H        2          0.774353                              0.225647
      38     H        2          0.814701                              0.185299
      39     H        2          0.764953                              0.235047
      40     H        2          0.830273                              0.169727
      41     Li       1          2.274886                              0.725114
      42     Li       1          2.161476                              0.838524
      43     Li       1          1.893645                              1.106355
      44     Li       1          2.406125                              0.593875
      45     H        2          1.113470                             -0.113470
      46     H        2          0.892838                              0.107162
      47     H        2          0.828813                              0.171187
      48     H        2          0.948654                              0.051346
      49     Li       1          2.733633                              0.266367
      50     Li       1          2.385176                              0.614824
      51     Li       1          2.152187                              0.847813
      52     Li       1          2.154429                              0.845571
      53     H        2          1.171409                             -0.171409
      54     H        2          0.894059                              0.105941
      55     H        2          0.814014                              0.185986
      56     H        2          0.805984                              0.194016
      57     Li       1          2.050928                              0.949072
      58     Li       1          2.035785                              0.964215
      59     Li       1          2.310030                              0.689970
      60     Li       1          2.470625                              0.529375
      61     H        2          0.836384                              0.163616
      62     H        2          0.903624                              0.096376
      63     H        2          0.946564                              0.053436
      64     H        2          0.920141                              0.079859
      65     Li       1          3.170968                             -0.170968
      66     Li       1          2.277860                              0.722140
      67     Li       1          2.263640                              0.736360
      68     Li       1          2.963034                              0.036966
      69     H        2          1.393525                             -0.393525
      70     H        2          1.301481                             -0.301481
      71     H        2          1.054496                             -0.054496
      72     H        2          0.994757                              0.005243
      73     Li       1          2.151857                              0.848143
      74     Li       1          2.116940                              0.883060
      75     Li       1          2.088844                              0.911156
      76     Li       1          2.134379                              0.865621
      77     H        2          0.832678                              0.167322
      78     H        2          0.833230                              0.166770
      79     H        2          0.958819                              0.041181
      80     H        2          0.937729                              0.062271
      81     Li       1          1.893021                              1.106979
      82     Li       1          1.852509                              1.147491
      83     Li       1          2.111237                              0.888763
      84     Li       1          2.139905                              0.860095
      85     H        2          0.846320                              0.153680
      86     H        2          0.862322                              0.137678
      87     H        2          0.901963                              0.098037
      88     H        2          0.870757                              0.129243
      89     Li       1          2.024964                              0.975036
      90     Li       1          2.005337                              0.994663
      91     Li       1          2.223747                              0.776253
      92     Li       1          2.056565                              0.943435
      93     H        2          0.942372                              0.057628
      94     H        2          0.956796                              0.043204
      95     H        2          1.064530                             -0.064530
      96     H        2          1.014196                             -0.014196
      97     Li       1          2.039520                              0.960480
      98     Li       1          2.146057                              0.853943
      99     Li       1          1.958258                              1.041742
     100     Li       1          2.078289                              0.921711
     101     H        2          0.862060                              0.137940
     102     H        2          0.811375                              0.188625
     103     H        2          0.828191                              0.171809
     104     H        2          0.855556                              0.144444
     105     Li       1          2.087402                              0.912598
     106     Li       1          2.075334                              0.924666
     107     Li       1          2.156568                              0.843432
     108     Li       1          2.149284                              0.850716
     109     H        2          0.707164                              0.292836
     110     H        2          0.834971                              0.165029
     111     H        2          0.869017                              0.130983
     112     H        2          0.843604                              0.156396
     113     Li       1          2.031730                              0.968270
     114     Li       1          2.216137                              0.783863
     115     Li       1          2.224901                              0.775099
     116     Li       1          2.018913                              0.981087
     117     H        2          1.138677                             -0.138677
     118     H        2          0.851362                              0.148638
     119     H        2          0.847543                              0.152457
     120     H        2          1.264155                             -0.264155
     121     Li       1          2.217009                              0.782991
     122     Li       1          2.431416                              0.568584
     123     Li       1          2.320536                              0.679464
     124     Li       1          2.059510                              0.940490
     125     H        2          0.949974                              0.050026
     126     H        2          0.879822                              0.120178
     127     H        2          0.913017                              0.086983
     128     H        2          1.099400                             -0.099400
     129     Li       1          2.329928                              0.670072
     130     Li       1          2.118473                              0.881527
     131     Li       1          2.383883                              0.616117
     132     Li       1          2.056891                              0.943109
     133     H        2          0.835737                              0.164263
     134     H        2          1.006962                             -0.006962
     135     H        2          0.766930                              0.233070
     136     H        2          0.946993                              0.053007
[...]
|  62.4% | 21,651.4 |      -- |    -- | ETC
||----------------------------------------------------------------------------
||  56.9% | 19,756.3 |   235.7 |  1.2% | BI_Srecv
||   1.1% |    374.4 |    14.6 |  3.8% | Cblacs_gridmap
||   1.1% |    369.4 | 1,515.6 | 80.4% | GOMP_parallel
||   1.0% |    340.9 |   459.1 | 57.4% | Cdgebr2d
||============================================================================
|  22.6% |  7,833.7 |      -- |    -- | USER
||----------------------------------------------------------------------------
||   7.5% |  2,613.8 |   882.2 | 25.2% | __hfx_energy_potential_MOD_update_fock_matrix.constprop.0
||   2.8% |    971.2 |   303.8 | 23.8% | __hfx_energy_potential_MOD_integrate_four_center._omp_fn.0
||   1.2% |    425.6 |   118.4 | 21.8% | __ao_util_MOD_trace_r_axb
||============================================================================
|  14.9% |  5,170.4 |      -- |    -- | MPI
||----------------------------------------------------------------------------
||   6.6% |  2,308.3 |   336.7 | 12.7% | MPI_BARRIER
||   3.3% |  1,152.0 |    82.0 |  6.6% | MPI_ALLREDUCE
||   3.0% |  1,037.8 |    61.2 |  5.6% | MPI_WAITALL
|=============================================================================

Notes for table 2:

  This table shows functions, and line numbers within functions, that
    have significant exclusive sample hits, averaged across ranks.
  For further explanation, see the "General table notes" below,
    or use:  pat_report -v -O samp_profile+src ...

Table 2:  Profile by Group, Function, and Line

  Samp% |     Samp |  Imb. |  Imb. | Group
        |          |  Samp | Samp% |  Function=[MAX10]
        |          |       |       |   Source
        |          |       |       |    Line
        |          |       |       |     PE=HIDE
        |          |       |       |      Thread=HIDE
       
 100.0% | 34,713.0 |    -- |    -- | Total
|-----------------------------------------------------------------------------
|  62.4% | 21,651.4 |    -- |    -- | ETC
||----------------------------------------------------------------------------
||  56.9% | 19,756.3 | 235.7 |  1.2% | BI_Srecv
||   1.1% |    374.4 |  14.6 |  3.8% | Cblacs_gridmap
||   1.1% |    369.4 |    -- |    -- | GOMP_parallel
3|        |          |       |       |  ../cpe-gcc-11.2.0-202108140355.9bf1fd589a5c1/libgomp/parallel.c
4|   1.0% |    340.0 | 136.0 | 28.6% |   line.179
||   1.0% |    340.9 | 459.1 | 57.4% | Cdgebr2d
||============================================================================
|  22.6% |  7,833.7 |    -- |    -- | USER
||----------------------------------------------------------------------------
||   7.5% |  2,613.8 |    -- |    -- | __hfx_energy_potential_MOD_update_fock_matrix.constprop.0
3|        |          |       |       |  CP2K/cp2k-8.2/src/hfx_energy_potential.F
||||--------------------------------------------------------------------------
4|||   1.2% |    408.7 | 163.3 | 28.6% | line.2580
4|||   1.3% |    445.3 | 179.7 | 28.8% | line.2603
4|||   1.1% |    379.9 | 173.1 | 31.3% | line.2649
||||==========================================================================
||   2.8% |    971.2 |    -- |    -- | __hfx_energy_potential_MOD_integrate_four_center._omp_fn.0
3|   2.6% |    894.7 |    -- |    -- |  CP2K/cp2k-8.2/src/hfx_energy_potential.F
||   1.2% |    425.6 |    -- |    -- | __ao_util_MOD_trace_r_axb
3|        |          |       |       |  cp2k-8.2/src/aobasis/ao_util.F
||============================================================================
|  14.9% |  5,170.4 |    -- |    -- | MPI
||----------------------------------------------------------------------------
||   6.6% |  2,308.3 | 336.7 | 12.7% | MPI_BARRIER
||   3.3% |  1,152.0 |  82.0 |  6.6% | MPI_ALLREDUCE
||   3.0% |  1,037.8 |  61.2 |  5.6% | MPI_WAITALL
|=============================================================================

Notes for table 3:

  This table shows functions that have the most significant exclusive
    time, taking for each thread the average time across ranks.
    The imbalance percentage is relative to the team observed to
    participate in execution.
    Use -s th=ALL to see individual thread values.
  For further explanation, see the "General table notes" below,
    or use:  pat_report -v -O profile_th_pe ...

Table 3:  Profile by Function Group and Function

  Samp% |     Samp |    Imb. |   Imb. | Team | Group
        |          |    Samp |  Samp% | Size |  Function=[MAX10]
        |          |         |        |      |   Thread=HIDE
        |          |         |        |      |    PE=HIDE
       
 100.0% | 34,713.0 |      -- |     -- |   -- | Total
|-----------------------------------------------------------------------------
|  62.4% | 21,651.4 |      -- |     -- |   -- | ETC
||----------------------------------------------------------------------------
||  56.9% | 19,756.3 |      -- |     -- |    1 | BI_Srecv
||   1.1% |    374.4 |      -- |     -- |    1 | Cblacs_gridmap
||   1.1% |    369.4 |   307.8 | 100.0% |    6 | GOMP_parallel
||   1.0% |    340.9 |      -- |     -- |    1 | Cdgebr2d
||============================================================================
|  22.6% |  7,833.7 |      -- |     -- |   -- | USER
||----------------------------------------------------------------------------
||   7.5% |  2,613.8 | 2,501.6 |  96.7% |   93 | __hfx_energy_potential_MOD_update_fock_matrix.constprop.0
||   2.8% |    971.2 |   933.6 |  97.2% |   93 | __hfx_energy_potential_MOD_integrate_four_center._omp_fn.0
||   1.2% |    425.6 |      -- |     -- |    1 | __ao_util_MOD_trace_r_axb
||============================================================================
|  14.9% |  5,170.4 |      -- |     -- |   -- | MPI
||----------------------------------------------------------------------------
||   6.6% |  2,308.3 |      -- |     -- |    1 | MPI_BARRIER
||   3.3% |  1,152.0 |   987.4 | 100.0% |    7 | MPI_ALLREDUCE
||   3.0% |  1,037.8 |      -- |     -- |    1 | MPI_WAITALL
|=============================================================================

Observation:  Metric-Based Rank Order

    When the use of a shared resource like memory bandwidth is unbalanced
    across nodes, total execution time may be reduced with a rank order
    that improves the balance.  The metric used here for resource usage
    is: USER Samp

    For each node, the metric values for the ranks on that node are
    summed.  The maximum and average value of those sums are shown below
    for both the current rank order and a custom rank order that seeks
    to reduce the maximum value.

    A file named MPICH_RANK_ORDER.USER_Samp was generated
    along with this report and contains usage instructions and the
    Custom rank order from the following table.

       Rank    Node Reduction    Maximum  Average
      Order  Metric    in Max      Value  Value
               Imb.     Value             

    Current  98.43%            5.692e+07  8.954e+05
     Custom   0.68%   98.416%  9.015e+05  8.954e+05


Observation:  Memory Bandwidth as Percent of Peak

    Memory bandwith utilization of 120.07 GBytes/sec is 58.6% of nominal
    peak, which exceeds the guideline of 50.0%. This may mean that there
    are intervals during the execution of the program in which memory
    bandwidth is saturated.


Notes for table 4:

  This table shows memory traffic for numa nodes, taking for each numa
    node the maximum value across nodes. It also shows the balance in
    memory traffic by showing the top 3 and bottom 3 node values.
  For further explanation, see the "General table notes" below,
    or use:  pat_report -v -O mem_bw ...

Table 4:  Memory Bandwidth by Numanode

  Memory |    Read |   Write |     Thread |  Memory |  Memory | Numanode
 Traffic |  Memory |  Memory |       Time | Traffic | Traffic |  Node Id=[max3,min3]
  GBytes | Traffic | Traffic |            |  GBytes |       / |   PE=HIDE
         |  GBytes |  GBytes |            |   / Sec | Nominal |    Thread=HIDE
         |         |         |            |         |    Peak | 
|-----------------------------------------------------------------------------
|  40,255 |  31,708 |   8,547 | 348.845010 |  115.40 |   56.3% | numanode.0
||----------------------------------------------------------------------------
||  40,255 |  31,708 |   8,547 | 348.833540 |  115.40 |   56.3% | nid.0
||  687.90 |  549.18 |  138.73 | 348.828288 |    1.97 |    1.0% | nid.1128
||  681.11 |  491.26 |  189.85 | 348.810242 |    1.95 |    1.0% | nid.1227
||  619.44 |  490.43 |  129.01 | 348.815383 |    1.78 |    0.9% | nid.5779
||  618.40 |  490.13 |  128.26 | 348.819865 |    1.77 |    0.9% | nid.5758
||  469.07 |  372.66 |   96.42 | 348.803924 |    1.34 |    0.7% | nid.5771
||============================================================================
|  41,157 |  32,413 |   8,744 | 348.829542 |  117.99 |   57.6% | numanode.1
||----------------------------------------------------------------------------
||  41,157 |  32,413 |   8,744 | 348.829542 |  117.99 |   57.6% | nid.0
||  692.52 |  498.18 |  194.33 | 348.815000 |    1.99 |    1.0% | nid.1245
||  641.96 |  507.41 |  134.55 | 348.820206 |    1.84 |    0.9% | nid.1132
||  625.83 |  494.63 |  131.20 | 348.813222 |    1.79 |    0.9% | nid.5767
||  624.81 |  493.90 |  130.91 | 348.814066 |    1.79 |    0.9% | nid.1197
||  624.74 |  494.80 |  129.94 | 348.811736 |    1.79 |    0.9% | nid.1201
||============================================================================
|  41,876 |  32,945 |   8,932 | 348.853291 |  120.04 |   58.6% | numanode.2
||----------------------------------------------------------------------------
||  41,876 |  32,945 |   8,932 | 348.824466 |  120.05 |   58.6% | nid.0
||  686.13 |  498.45 |  187.68 | 348.819940 |    1.97 |    1.0% | nid.1229
||  648.30 |  496.62 |  151.68 | 348.824318 |    1.86 |    0.9% | nid.1199
||  625.67 |  492.99 |  132.67 | 348.824420 |    1.79 |    0.9% | nid.1207
||  624.64 |  492.35 |  132.29 | 348.825791 |    1.79 |    0.9% | nid.5773
||  624.27 |  494.42 |  129.85 | 348.819435 |    1.79 |    0.9% | nid.1195
||============================================================================
|  41,870 |  32,983 |   8,888 | 348.849593 |  120.02 |   58.6% | numanode.3
||----------------------------------------------------------------------------
||  41,870 |  32,983 |   8,888 | 348.826391 |  120.03 |   58.6% | nid.0
||  640.26 |  507.40 |  132.86 | 348.822874 |    1.84 |    0.9% | nid.1130
||  639.91 |  500.29 |  139.62 | 348.823536 |    1.83 |    0.9% | nid.1243
||  626.79 |  495.88 |  130.91 | 348.825654 |    1.80 |    0.9% | nid.1158
||  625.01 |  494.94 |  130.07 | 348.818529 |    1.79 |    0.9% | nid.1205
||  624.92 |  496.90 |  128.03 | 348.786635 |    1.79 |    0.9% | nid.1163
||============================================================================
|  41,960 |  32,982 |   8,978 | 348.854573 |  120.28 |   58.7% | numanode.4
||----------------------------------------------------------------------------
||  41,960 |  32,982 |   8,978 | 348.826837 |  120.29 |   58.7% | nid.0
||  640.51 |  502.81 |  137.69 | 348.821841 |    1.84 |    0.9% | nid.1174
||  640.04 |  502.41 |  137.63 | 348.821207 |    1.83 |    0.9% | nid.1156
||  627.49 |  494.94 |  132.55 | 348.823771 |    1.80 |    0.9% | nid.1243
||  624.68 |  494.83 |  129.85 | 348.818706 |    1.79 |    0.9% | nid.1245
||  624.31 |  494.25 |  130.06 | 348.814808 |    1.79 |    0.9% | nid.1201
||============================================================================
|  41,802 |  32,946 |   8,856 | 348.843048 |  119.83 |   58.5% | numanode.5
||----------------------------------------------------------------------------
||  41,802 |  32,946 |   8,856 | 348.843048 |  119.83 |   58.5% | nid.0
||  641.32 |  501.36 |  139.97 | 348.817956 |    1.84 |    0.9% | nid.1235
||  639.06 |  495.51 |  143.55 | 348.824127 |    1.83 |    0.9% | nid.1252
||  626.30 |  495.41 |  130.89 | 348.819918 |    1.80 |    0.9% | nid.1193
||  626.12 |  493.75 |  132.37 | 348.823331 |    1.79 |    0.9% | nid.1223
||  622.29 |  491.90 |  130.40 | 348.811243 |    1.78 |    0.9% | nid.1231
||============================================================================
|  41,968 |  32,913 |   9,055 | 348.849096 |  120.30 |   58.7% | numanode.6
||----------------------------------------------------------------------------
||  41,968 |  32,913 |   9,055 | 348.839163 |  120.31 |   58.7% | nid.0
||  693.19 |  495.36 |  197.82 | 348.822490 |    1.99 |    1.0% | nid.1146
||  645.86 |  500.10 |  145.75 | 348.815258 |    1.85 |    0.9% | nid.1148
||  626.64 |  496.19 |  130.45 | 348.839362 |    1.80 |    0.9% | nid.1223
||  625.69 |  492.54 |  133.15 | 348.817180 |    1.79 |    0.9% | nid.1195
||  623.23 |  493.84 |  129.39 | 348.829162 |    1.79 |    0.9% | nid.1142
||============================================================================
|  29,716 |  23,326 |   6,390 | 348.843813 |   85.19 |   41.6% | numanode.7
||----------------------------------------------------------------------------
||  29,716 |  23,326 |   6,390 | 348.838181 |   85.19 |   41.6% | nid.0
||  614.34 |  483.51 |  130.83 | 348.828453 |    1.76 |    0.9% | nid.1130
||  613.63 |  479.53 |  134.10 | 348.818252 |    1.76 |    0.9% | nid.1182
||  154.51 |  122.20 |   32.31 | 348.806552 |    0.44 |    0.2% | nid.1208
||  154.15 |  122.90 |   31.26 | 348.790268 |    0.44 |    0.2% | nid.1145
||  154.00 |  122.58 |   31.42 | 348.796314 |    0.44 |    0.2% | nid.1147
|=============================================================================

Notes for table 5:

  This table shows energy and power usage for the nodes with the
    maximum, mean, and minimum usage, as well as the sum of usage over
    all nodes.
    Energy and power for accelerators is also shown, if applicable.
  For further explanation, see the "General table notes" below,
    or use:  pat_report -v -O program_energy ...

Table 5:  Program energy and power usage (from Cray PM)

       Node | Node Power |    Process | Node Id=[mmm]
 Energy (J) |        (W) |       Time |  PE=HIDE
            |            |            |   Thread=HIDE
           
 18,208,945 | 52,195.684 | 348.859201 | Total
|----------------------------------------------------
|    155,218 |    444.922 | 348.865645 | nid.1206
|    140,829 |    403.675 | 348.867263 | nid.1134
|    132,819 |    380.722 | 348.860710 | nid.1138
|====================================================

Notes for table 6:

  This table show the average time and number of bytes read from each
    input file, taking the average over the number of ranks that read
    from the file.  It also shows the number of read operations, and
    average rates.
  For further explanation, see the "General table notes" below,
    or use:  pat_report -v -O read_stats ...

Table 6:  File Input Stats by Filename

 Avg Read |  Avg Read |   Read Rate | Number |     Avg |     Bytes/ | File Name=!x/^/(proc|sys)/
 Time per |   MiBytes | MiBytes/sec |     of |   Reads |       Call |  PE=HIDE
   Reader |       per |             | Reader |     per |            | 
     Rank |    Reader |             |  Ranks |  Reader |            | 
          |      Rank |             |        |    Rank |            | 
|-----------------------------------------------------------------------------
| 0.440666 | 11.917282 |   27.043817 |      1 | 1,527.0 |   8,183.48 | ./t_c_g.dat
| 0.291116 | 13.385548 |   45.980172 |      1 |   108.0 | 129,960.78 | B88.wfn
| 0.239240 |  0.004263 |    0.017819 |      1 |     6.0 |     745.00 | ./BASIS_OPT
| 0.042726 |  0.258743 |    6.055850 |      1 |    38.0 |   7,139.79 | ./POTENTIAL
| 0.011703 |  0.005267 |    0.450066 |      1 |     3.0 |   1,841.00 | input_bulk_HFX_3.inp
| 0.000007 |  0.000020 |    2.665585 |  2,763 |     5.2 |       4.00 | _UnknownFile_
|=============================================================================

Notes for table 7:

  This table show the average time and number of bytes written to each
    output file, taking the average over the number of ranks that
    wrote to the file.  It also shows the number of write operations,
    and average rates.
  For further explanation, see the "General table notes" below,
    or use:  pat_report -v -O write_stats ...

Table 7:  File Output Stats by Filename

      Avg |      Avg |   Write Rate | Number |     Avg |    Bytes/ | File Name=!x/^/(proc|sys)/
    Write |    Write |  MiBytes/sec |     of |  Writes |      Call |  PE=HIDE
 Time per |  MiBytes |              | Writer |     per |           | 
   Writer |      per |              |  Ranks |  Writer |           | 
     Rank |   Writer |              |        |    Rank |           | 
          |     Rank |              |        |         |           | 
|-----------------------------------------------------------------------------
| 0.001584 | 0.160123 |   101.111992 |      1 | 2,523.0 |     66.55 | stdout
| 0.001029 | 4.093857 | 3,978.550462 |      1 |    66.0 | 65,041.21 | /dev/shm/ucx_shm_posix_640b8e0
| 0.000963 | 4.093857 | 4,249.353401 |      1 |    66.0 | 65,041.21 | /dev/shm/ucx_shm_posix_26de228e
| 0.000947 | 4.093857 | 4,323.175323 |      1 |    66.0 | 65,041.21 | /dev/shm/ucx_shm_posix_38a9501f
| 0.000945 | 4.093857 | 4,331.770651 |      1 |    66.0 | 65,041.21 | /dev/shm/ucx_shm_posix_4e7ae589
| 0.000944 | 4.093857 | 4,336.625440 |      1 |    66.0 | 65,041.21 | /dev/shm/ucx_shm_posix_4bf7b76d
| 0.000944 | 4.093857 | 4,338.243058 |      1 |    66.0 | 65,041.21 | /dev/shm/ucx_shm_posix_38a4c75d
| 0.000932 | 4.093857 | 4,390.213804 |      1 |    66.0 | 65,041.21 | /dev/shm/ucx_shm_posix_46557ced
| 0.000924 | 4.093857 | 4,429.646137 |      1 |    66.0 | 65,041.21 | /dev/shm/ucx_shm_posix_24933ba0
| 0.000904 | 4.093857 | 4,526.885055 |      1 |    66.0 | 65,041.21 | /dev/shm/ucx_shm_posix_22cba377
| 0.000903 | 4.093857 | 4,533.818565 |      1 |    66.0 | 65,041.21 | /dev/shm/ucx_shm_posix_5b708450
| 0.000900 | 4.093857 | 4,547.698979 |      1 |    66.0 | 65,041.21 | /dev/shm/ucx_shm_posix_577bdcdc
| 0.000897 | 4.093857 | 4,564.696083 |      1 |    66.0 | 65,041.21 | /dev/shm/ucx_shm_posix_33e2805e
| 0.000896 | 4.093857 | 4,570.413865 |      1 |    66.0 | 65,041.21 | /dev/shm/ucx_shm_posix_19cf0a4f
| 0.000891 | 4.093857 | 4,593.444420 |      1 |    66.0 | 65,041.21 | /dev/shm/ucx_shm_posix_70130276
|=============================================================================

Table 8:  Lustre File Information

            File Path |    Stripe | Stripe | Stripe | OST list
                      |      size | offset |  count | 
--------------------------------------------------------------
 input_bulk_HFX_3.inp | 1,048,576 |      0 |      1 | 4
          ./BASIS_OPT | 1,048,576 |      0 |      1 | 3
          ./POTENTIAL | 1,048,576 |      0 |      1 | 6
              B88.wfn | 1,048,576 |      0 |      1 | 2
          ./t_c_g.dat | 1,048,576 |      0 |      1 | 7
==============================================================
Program invocation:
  /work/z19/z19/aturner/software/CP2K/cp2k-8.2/exe/ARCHER2/cp2k.psmp -i input_bulk_HFX_3.inp

For a complete report with expanded tables and notes, run:
  pat_report /mnt/lustre/a2fs-work2/work/z19/z19/aturner/benchmark/ofi-vs-ucx/CP2K/LiH_HFX/calc/UCX/cp2k.psmp+36484-1128s

For help identifying callers of particular functions:
  pat_report -O callers+src /mnt/lustre/a2fs-work2/work/z19/z19/aturner/benchmark/ofi-vs-ucx/CP2K/LiH_HFX/calc/UCX/cp2k.psmp+36484-1128s
To see the entire call tree:
  pat_report -O calltree+src /mnt/lustre/a2fs-work2/work/z19/z19/aturner/benchmark/ofi-vs-ucx/CP2K/LiH_HFX/calc/UCX/cp2k.psmp+36484-1128s

For interactive, graphical performance analysis, run:
  app2 /mnt/lustre/a2fs-work2/work/z19/z19/aturner/benchmark/ofi-vs-ucx/CP2K/LiH_HFX/calc/UCX/cp2k.psmp+36484-1128s

================  End of CrayPat-lite output  ==========================
