 DBCSR| CPU Multiplication driver                                           BLAS
 DBCSR| Multrec recursion limit                                              512
 DBCSR| Multiplication stack size                                           1000
 DBCSR| Maximum elements for images                                    UNLIMITED
 DBCSR| Multiplicative factor virtual images                                   1
 DBCSR| Use multiplication densification                                       T
 DBCSR| Multiplication size stacks                                             3
 DBCSR| Use memory pool for CPU allocation                                     F
 DBCSR| Number of 3D layers                                               SINGLE
 DBCSR| Use MPI memory allocation                                              F
 DBCSR| Use RMA algorithm                                                      F
 DBCSR| Use Communication thread                                               T
 DBCSR| Communication thread load                                             75
 DBCSR| MPI: My node id                                                        0
 DBCSR| MPI: Number of nodes                                                2048
 DBCSR| OMP: Current number of threads                                         4
 DBCSR| OMP: Max number of threads                                             4
 DBCSR| Split modifier for TAS multiplication algorithm                  1.0E+00


  **** **** ******  **  PROGRAM STARTED AT               2022-03-29 15:11:34.548
 ***** ** ***  *** **   PROGRAM STARTED ON                             nid002164
 **    ****   ******    PROGRAM STARTED BY                               aturner
 ***** **    ** ** **   PROGRAM PROCESS ID                                117615
  **** **  *******  **  PROGRAM STARTED IN /mnt/lustre/a2fs-work2/work/z19/z19/a
                                           turner/benchmark/ofi-vs-ucx/CP2K/LiH_
                                           HFX/calc/UCX

 CP2K| version string:                                          CP2K version 8.2
 CP2K| source code revision number:                                  git:310b7ab
 CP2K| cp2kflags: omp libint fftw3 libxc elpa parallel mpi3 scalapack           
 CP2K| is freely available from                            https://www.cp2k.org/
 CP2K| Program compiled at                          Wed 23 Mar 12:19:29 GMT 2022
 CP2K| Program compiled on                                                  ln04
 CP2K| Program compiled for                                              ARCHER2
 CP2K| Data directory path                   /work/y07/shared/cp2k/cp2k-8.1/data
 CP2K| Input file name                                      input_bulk_HFX_3.inp

 GLOBAL| Force Environment number                                              1
 GLOBAL| Basis set file name                                         ./BASIS_OPT
 GLOBAL| Potential file name                                         ./POTENTIAL
 GLOBAL| MM Potential file name                                     MM_POTENTIAL
 GLOBAL| Coordinate file name                                      __STD_INPUT__
 GLOBAL| Method name                                                        CP2K
 GLOBAL| Project name                                                 LiH_bulk_3
 GLOBAL| Run type                                                         ENERGY
 GLOBAL| FFT library                                                       FFTW3
 GLOBAL| Diagonalization library                                            ELPA
 GLOBAL| Minimum number of eigenvectors for ELPA usage                        16
 GLOBAL| Orthonormality check for eigenvectors                          DISABLED
 GLOBAL| Matrix multiplication library                                    SCALAP
 GLOBAL| All-to-all communication in single precision                          F
 GLOBAL| FFTs using library dependent lengths                                  F
 GLOBAL| Grid backend                                                       AUTO
 GLOBAL| Global print level                                               MEDIUM
 GLOBAL| MPI I/O enabled                                                       T
 GLOBAL| Total number of message passing processes                          2048
 GLOBAL| Number of threads for this process                                    4
 GLOBAL| This output is from process                                           0
 GLOBAL| CPU model name                          AMD EPYC 7742 64-Core Processor
 GLOBAL| CPUID                                                              1002

 MEMORY| system memory details [Kb]
 MEMORY|                        rank 0           min           max       average
 MEMORY| MemTotal            263528084     263528084     263528088     263528087
 MEMORY| MemFree             246153144     244352172     248844892     247164185
 MEMORY| Buffers                 27060         18380         29528         22504
 MEMORY| Cached                1586640        650580       3278072       1441133
 MEMORY| Slab                  1793424       1366700       1857496       1637973
 MEMORY| SReclaimable           236840         88172        237196        168386
 MEMORY| MemLikelyFree       248003684     247820372     249675788     248796210


 *** Fundamental physical constants (SI units) ***

 *** Literature: B. J. Mohr and B. N. Taylor,
 ***             CODATA recommended values of the fundamental physical
 ***             constants: 2006, Web Version 5.1
 ***             http://physics.nist.gov/constants

 Speed of light in vacuum [m/s]                             2.99792458000000E+08
 Magnetic constant or permeability of vacuum [N/A**2]       1.25663706143592E-06
 Electric constant or permittivity of vacuum [F/m]          8.85418781762039E-12
 Planck constant (h) [J*s]                                  6.62606896000000E-34
 Planck constant (h-bar) [J*s]                              1.05457162825177E-34
 Elementary charge [C]                                      1.60217648700000E-19
 Electron mass [kg]                                         9.10938215000000E-31
 Electron g factor [ ]                                     -2.00231930436220E+00
 Proton mass [kg]                                           1.67262163700000E-27
 Fine-structure constant                                    7.29735253760000E-03
 Rydberg constant [1/m]                                     1.09737315685270E+07
 Avogadro constant [1/mol]                                  6.02214179000000E+23
 Boltzmann constant [J/K]                                   1.38065040000000E-23
 Atomic mass unit [kg]                                      1.66053878200000E-27
 Bohr radius [m]                                            5.29177208590000E-11

 *** Conversion factors ***

 [u] -> [a.u.]                                              1.82288848426455E+03
 [Angstrom] -> [Bohr] = [a.u.]                              1.88972613288564E+00
 [a.u.] = [Bohr] -> [Angstrom]                              5.29177208590000E-01
 [a.u.] -> [s]                                              2.41888432650478E-17
 [a.u.] -> [fs]                                             2.41888432650478E-02
 [a.u.] -> [J]                                              4.35974393937059E-18
 [a.u.] -> [N]                                              8.23872205491840E-08
 [a.u.] -> [K]                                              3.15774647902944E+05
 [a.u.] -> [kJ/mol]                                         2.62549961709828E+03
 [a.u.] -> [kcal/mol]                                       6.27509468713739E+02
 [a.u.] -> [Pa]                                             2.94210107994716E+13
 [a.u.] -> [bar]                                            2.94210107994716E+08
 [a.u.] -> [atm]                                            2.90362800883016E+08
 [a.u.] -> [eV]                                             2.72113838565563E+01
 [a.u.] -> [Hz]                                             6.57968392072181E+15
 [a.u.] -> [1/cm] (wave numbers)                            2.19474631370540E+05
 [a.u./Bohr**2] -> [1/cm]                                   5.14048714338585E+03
 

 CELL_TOP| Volume [angstrom^3]:                                      1839.166147
 CELL_TOP| Vector a [angstrom    12.252     0.000     0.000   |a| =    12.252000
 CELL_TOP| Vector b [angstrom     0.000    12.252     0.000   |b| =    12.252000
 CELL_TOP| Vector c [angstrom     0.000     0.000    12.252   |c| =    12.252000
 CELL_TOP| Angle (b,c), alpha [degree]:                                90.000000
 CELL_TOP| Angle (a,c), beta  [degree]:                                90.000000
 CELL_TOP| Angle (a,b), gamma [degree]:                                90.000000
 CELL_TOP| Numerically orthorhombic:                                         YES

 GENERATE|  Preliminary Number of Bonds generated:                             0
 GENERATE|  Achieved consistency in connectivity generation.

 CELL| Volume [angstrom^3]:                                          1839.166147
 CELL| Vector a [angstrom]:      12.252     0.000     0.000   |a| =    12.252000
 CELL| Vector b [angstrom]:       0.000    12.252     0.000   |b| =    12.252000
 CELL| Vector c [angstrom]:       0.000     0.000    12.252   |c| =    12.252000
 CELL| Angle (b,c), alpha [degree]:                                    90.000000
 CELL| Angle (a,c), beta  [degree]:                                    90.000000
 CELL| Angle (a,b), gamma [degree]:                                    90.000000
 CELL| Numerically orthorhombic:                                             YES

 CELL_REF| Volume [angstrom^3]:                                      1839.166147
 CELL_REF| Vector a [angstrom    12.252     0.000     0.000   |a| =    12.252000
 CELL_REF| Vector b [angstrom     0.000    12.252     0.000   |b| =    12.252000
 CELL_REF| Vector c [angstrom     0.000     0.000    12.252   |c| =    12.252000
 CELL_REF| Angle (b,c), alpha [degree]:                                90.000000
 CELL_REF| Angle (a,c), beta  [degree]:                                90.000000
 CELL_REF| Angle (a,b), gamma [degree]:                                90.000000
 CELL_REF| Numerically orthorhombic:                                         YES

 *******************************************************************************
 *******************************************************************************
 **                                                                           **
 **     #####                         ##              ##                      **
 **    ##   ##            ##          ##              ##                      **
 **   ##     ##                       ##            ######                    **
 **   ##     ##  ##   ##  ##   #####  ##  ##   ####   ##    #####    #####    **
 **   ##     ##  ##   ##  ##  ##      ## ##   ##      ##   ##   ##  ##   ##   **
 **   ##  ## ##  ##   ##  ##  ##      ####     ###    ##   ######   ######    **
 **    ##  ###   ##   ##  ##  ##      ## ##      ##   ##   ##       ##        **
 **     #######   #####   ##   #####  ##  ##  ####    ##    #####   ##        **
 **           ##                                                    ##        **
 **                                                                           **
 **                                                ... make the atoms dance   **
 **                                                                           **
 **            Copyright (C) by CP2K developers group (2000-2021)             **
 **                      J. Chem. Phys. 152, 194103 (2020)                    **
 **                                                                           **
 *******************************************************************************

 DFT| Spin restricted Kohn-Sham (RKS) calculation                            RKS
 DFT| Multiplicity                                                             1
 DFT| Number of spin states                                                    1
 DFT| Charge                                                                   0
 DFT| Self-interaction correction (SIC)                                       NO
 DFT| Cutoffs: density                                              1.000000E-10
 DFT|          gradient                                             1.000000E-10
 DFT|          tau                                                  1.000000E-10
 DFT|          cutoff_smoothing_range                               0.000000E+00
 DFT| XC density smoothing                                                  NONE
 DFT| XC derivatives                                                          PW
 FUNCTIONAL| NO EXCHANGE-CORRELATION FUNCTIONAL USED.

 QS| Method:                                                                GAPW
 QS| Density plane wave grid type                        NON-SPHERICAL FULLSPACE
 QS| Number of grid levels:                                                    4
 QS| Density cutoff [a.u.]:                                                150.0
 QS| Multi grid cutoff [a.u.]: 1) grid level                               150.0
 QS|                           2) grid level                                50.0
 QS|                           3) grid level                                16.7
 QS|                           4) grid level                                 5.6
 QS| Grid level progression factor:                                          3.0
 QS| Relative density cutoff [a.u.]:                                        25.0
 QS| Interaction thresholds: eps_pgf_orb:                                1.0E-16
 QS|                         eps_filter_matrix:                          0.0E+00
 QS|                         eps_core_charge:                            1.0E-14
 QS|                         eps_rho_gspace:                             1.0E-12
 QS|                         eps_rho_rspace:                             1.0E-12
 QS|                         eps_gvg_rspace:                             1.0E-06
 QS|                         eps_ppl:                                    1.0E-02
 QS|                         eps_ppnl:                                   1.0E-08
 QS| GAPW|                   eps_fit:                                    1.0E-04
 QS| GAPW|                   eps_iso:                                    1.0E-12
 QS| GAPW|                   eps_svd:                                    1.0E-08
 QS| GAPW|                   eps_cpc:                                    1.0E-12
 QS| GAPW|   atom-r-grid: quadrature:                                     GC_LOG
 QS| GAPW|      atom-s-grid:  max l :                                          6
 QS| GAPW|      max_l_rho0 :                                                   2


 ATOMIC KIND INFORMATION

  1. Atomic kind: Li                                    Number of atoms:     108

     Orbital Basis Set                                                      OPT2

       Number of orbital shell sets:                                          19
       Number of orbital shells:                                              19
       Number of primitive Cartesian functions:                               22
       Number of Cartesian basis functions:                                   48
       Number of spherical basis functions:                                   43
       Norm type:                                                              2

       Normalised Cartesian orbitals:

                        Set   Shell   Orbital            Exponent    Coefficient

                          1       1    1s             1336.034059     157.497346

                          2       1    1s              444.299817      68.971106

                          3       1    1s              147.797018      30.210600

                          4       1    1s               49.209451      13.241784

                          5       1    1s               16.428957       5.815909

                          6       1    1s                5.529399       2.569914

                          7       1    1s                1.905282       1.155792

                          8       1    1s                0.700259       0.545574

                          9       1    1s                0.299587       0.288604

                         10       1    1s                0.166363       0.185653

                         11       1    1px               1.570911       2.506857
                         11       1    1py               1.570911       2.506857
                         11       1    1pz               1.570911       2.506857

                         12       1    1px               0.748759       0.992813
                         12       1    1py               0.748759       0.992813
                         12       1    1pz               0.748759       0.992813

                         13       1    1px               0.386141       0.433883
                         13       1    1py               0.386141       0.433883
                         13       1    1pz               0.386141       0.433883

                         14       1    1px               0.226205       0.222366
                         14       1    1py               0.226205       0.222366
                         14       1    1pz               0.226205       0.222366

                         15       1    1dx2              0.779208       1.063661
                         15       1    1dxy              0.779208       1.842314
                         15       1    1dxz              0.779208       1.842314
                         15       1    1dy2              0.779208       1.063661
                         15       1    1dyz              0.779208       1.842314
                         15       1    1dz2              0.779208       1.063661

                         16       1    1dx2              0.407899       0.342671
                         16       1    1dxy              0.407899       0.593523
                         16       1    1dxz              0.407899       0.593523
                         16       1    1dy2              0.407899       0.342671
                         16       1    1dyz              0.407899       0.593523
                         16       1    1dz2              0.407899       0.342671

                         17       1    1fx3              0.737063       0.741037
                         17       1    1fx2y             0.737063       1.657009
                         17       1    1fx2z             0.737063       1.657009
                         17       1    1fxy2             0.737063       1.657009
                         17       1    1fxyz             0.737063       2.870024
                         17       1    1fxz2             0.737063       1.657009
                         17       1    1fy3              0.737063       0.741037
                         17       1    1fy2z             0.737063       1.657009
                         17       1    1fyz2             0.737063       1.657009
                         17       1    1fz3              0.737063       0.741037

                         18       1    1s            70681.000000      77.181651
                                                     13594.000000     137.129824
                                                      3100.400000     260.757508

                         19       1    1px              28.500000      10.037838
                                                         6.640000      14.250477
                         19       1    1py              28.500000      10.037838
                                                         6.640000      14.250477
                         19       1    1pz              28.500000      10.037838
                                                         6.640000      14.250477

       Atomic covalent radius [Angstrom]:                                  1.230

       Atomic van der Waals radius [Angstrom]:                             1.820

     The atoms of this atomic kind are PAW atoms (GAPW):
       Hard Gaussian function radius:                                      1.512
       Rho0 radius:                                                        1.512
       Maximum GTO radius used for PAW projector construction:            24.566

     GAPW Soft Basis Set                                               OPT2_soft

       Number of orbital shell sets:                                          19
       Number of orbital shells:                                              19
       Number of primitive Cartesian functions:                               11
       Number of Cartesian basis functions:                                   48
       Number of spherical basis functions:                                   43
       Norm type:                                                              2

       Normalised Cartesian orbitals:

                        Set   Shell   Orbital            Exponent    Coefficient

                          1       1    1s         

                          2       1    1s         

                          3       1    1s         

                          4       1    1s         

                          5       1    1s         

                          6       1    1s         

                          7       1    1s                1.905282       1.155792

                          8       1    1s                0.700259       0.545574

                          9       1    1s                0.299587       0.288604

                         10       1    1s                0.166363       0.185653

                         11       1    1px               1.570911       2.506857
                         11       1    1py               1.570911       2.506857
                         11       1    1pz               1.570911       2.506857

                         12       1    1px               0.748759       0.992813
                         12       1    1py               0.748759       0.992813
                         12       1    1pz               0.748759       0.992813

                         13       1    1px               0.386141       0.433883
                         13       1    1py               0.386141       0.433883
                         13       1    1pz               0.386141       0.433883

                         14       1    1px               0.226205       0.222366
                         14       1    1py               0.226205       0.222366
                         14       1    1pz               0.226205       0.222366

                         15       1    1dx2              0.779208       1.063661
                         15       1    1dxy              0.779208       1.842314
                         15       1    1dxz              0.779208       1.842314
                         15       1    1dy2              0.779208       1.063661
                         15       1    1dyz              0.779208       1.842314
                         15       1    1dz2              0.779208       1.063661

                         16       1    1dx2              0.407899       0.342671
                         16       1    1dxy              0.407899       0.593523
                         16       1    1dxz              0.407899       0.593523
                         16       1    1dy2              0.407899       0.342671
                         16       1    1dyz              0.407899       0.593523
                         16       1    1dz2              0.407899       0.342671

                         17       1    1fx3              0.737063       0.741037
                         17       1    1fx2y             0.737063       1.657009
                         17       1    1fx2z             0.737063       1.657009
                         17       1    1fxy2             0.737063       1.657009
                         17       1    1fxyz             0.737063       2.870024
                         17       1    1fxz2             0.737063       1.657009
                         17       1    1fy3              0.737063       0.741037
                         17       1    1fy2z             0.737063       1.657009
                         17       1    1fyz2             0.737063       1.657009
                         17       1    1fz3              0.737063       0.741037

                         18       1    1s         

                         19       1    1px        
                         19       1    1py        
                         19       1    1pz        

     AE Potential information for                                            ALL

       Description:                                       All-electron potential
                                          Krack, Parrinello, PCCP 2, 2105 (2000)

       Gaussian exponent of the core charge distribution:               3.125000
       Electronic configuration (s p d ...):                           3   0   0

  2. Atomic kind: H                                     Number of atoms:     108

     Orbital Basis Set                                                      OPT2

       Number of orbital shell sets:                                          12
       Number of orbital shells:                                              12
       Number of primitive Cartesian functions:                               14
       Number of Cartesian basis functions:                                   37
       Number of spherical basis functions:                                   32
       Norm type:                                                              2

       Normalised Cartesian orbitals:

                        Set   Shell   Orbital            Exponent    Coefficient

                          1       1    1s               27.463675       8.550255

                          2       1    1s                6.855926       3.019671

                          3       1    1s                1.767997       1.092751

                          4       1    1s                0.511818       0.431268

                          5       1    1s                0.201675       0.214486

                          6       1    1px               2.124086       3.655151
                          6       1    1py               2.124086       3.655151
                          6       1    1pz               2.124086       3.655151

                          7       1    1px               1.073681       1.557881
                          7       1    1py               1.073681       1.557881
                          7       1    1pz               1.073681       1.557881

                          8       1    1px               0.568387       0.703469
                          8       1    1py               0.568387       0.703469
                          8       1    1pz               0.568387       0.703469

                          9       1    1dx2              0.928338       1.445092
                          9       1    1dxy              0.928338       2.502973
                          9       1    1dxz              0.928338       2.502973
                          9       1    1dy2              0.928338       1.445092
                          9       1    1dyz              0.928338       2.502973
                          9       1    1dz2              0.928338       1.445092

                         10       1    1dx2              0.495830       0.482216
                         10       1    1dxy              0.495830       0.835223
                         10       1    1dxz              0.495830       0.835223
                         10       1    1dy2              0.495830       0.482216
                         10       1    1dyz              0.495830       0.835223
                         10       1    1dz2              0.495830       0.482216

                         11       1    1fx3              1.207348       2.249456
                         11       1    1fx2y             1.207348       5.029937
                         11       1    1fx2z             1.207348       5.029937
                         11       1    1fxy2             1.207348       5.029937
                         11       1    1fxyz             1.207348       8.712106
                         11       1    1fxz2             1.207348       5.029937
                         11       1    1fy3              1.207348       2.249456
                         11       1    1fy2z             1.207348       5.029937
                         11       1    1fyz2             1.207348       5.029937
                         11       1    1fz3              1.207348       2.249456

                         12       1    1s             3079.700000       6.291525
                                                       461.520000      11.778577
                                                       105.060000      20.410428

       Atomic covalent radius [Angstrom]:                                  0.320

       Atomic van der Waals radius [Angstrom]:                             1.090

     The atoms of this atomic kind are PAW atoms (GAPW):
       Hard Gaussian function radius:                                      1.200
       Rho0 radius:                                                        1.200
       Maximum GTO radius used for PAW projector construction:            24.566

     GAPW Soft Basis Set                                               OPT2_soft

       Number of orbital shell sets:                                          12
       Number of orbital shells:                                              12
       Number of primitive Cartesian functions:                                9
       Number of Cartesian basis functions:                                   37
       Number of spherical basis functions:                                   32
       Norm type:                                                              2

       Normalised Cartesian orbitals:

                        Set   Shell   Orbital            Exponent    Coefficient

                          1       1    1s         

                          2       1    1s         

                          3       1    1s                1.767997       1.092751

                          4       1    1s                0.511818       0.431268

                          5       1    1s                0.201675       0.214486

                          6       1    1px               2.124086       3.655151
                          6       1    1py               2.124086       3.655151
                          6       1    1pz               2.124086       3.655151

                          7       1    1px               1.073681       1.557881
                          7       1    1py               1.073681       1.557881
                          7       1    1pz               1.073681       1.557881

                          8       1    1px               0.568387       0.703469
                          8       1    1py               0.568387       0.703469
                          8       1    1pz               0.568387       0.703469

                          9       1    1dx2              0.928338       1.445092
                          9       1    1dxy              0.928338       2.502973
                          9       1    1dxz              0.928338       2.502973
                          9       1    1dy2              0.928338       1.445092
                          9       1    1dyz              0.928338       2.502973
                          9       1    1dz2              0.928338       1.445092

                         10       1    1dx2              0.495830       0.482216
                         10       1    1dxy              0.495830       0.835223
                         10       1    1dxz              0.495830       0.835223
                         10       1    1dy2              0.495830       0.482216
                         10       1    1dyz              0.495830       0.835223
                         10       1    1dz2              0.495830       0.482216

                         11       1    1fx3              1.207348       2.249456
                         11       1    1fx2y             1.207348       5.029937
                         11       1    1fx2z             1.207348       5.029937
                         11       1    1fxy2             1.207348       5.029937
                         11       1    1fxyz             1.207348       8.712106
                         11       1    1fxz2             1.207348       5.029937
                         11       1    1fy3              1.207348       2.249456
                         11       1    1fy2z             1.207348       5.029937
                         11       1    1fyz2             1.207348       5.029937
                         11       1    1fz3              1.207348       2.249456

                         12       1    1s         

     AE Potential information for                                            ALL

       Description:                                       All-electron potential
                                          Krack, Parrinello, PCCP 2, 2105 (2000)

       Gaussian exponent of the core charge distribution:              12.500000
       Electronic configuration (s p d ...):                           1   0   0


 MOLECULE KIND INFORMATION


 All atoms are their own molecule, skipping detailed information


 TOTAL NUMBERS AND MAXIMUM NUMBERS

  Total number of            - Atomic kinds:                                   2
                             - Atoms:                                        216
                             - Shell sets:                                  3348
                             - Shells:                                      3348
                             - Primitive Cartesian functions:               3888
                             - Cartesian basis functions:                   9180
                             - Spherical basis functions:                   8100

  Maximum angular momentum of the orbital basis functions:                     3


 MODULE QUICKSTEP:  ATOMIC COORDINATES IN angstrom

  Atom  Kind  Element       X           Y           Z          Z(eff)       Mass

       1     1 Li   3    0.000000    0.000000    0.000000      3.0000       6.9410
       2     1 Li   3    2.042000    2.042000    0.000000      3.0000       6.9410
       3     1 Li   3    2.042000    0.000000    2.042000      3.0000       6.9410
       4     1 Li   3    0.000000    2.042000    2.042000      3.0000       6.9410
       5     2 H    1    0.000000    2.042000    0.000000      1.0000       1.0079
       6     2 H    1    0.000000    0.000000    2.042000      1.0000       1.0079
       7     2 H    1    2.042000    0.000000    0.000000      1.0000       1.0079
       8     2 H    1    2.042000    2.042000    2.042000      1.0000       1.0079
       9     1 Li   3    0.000000    0.000000    4.084000      3.0000       6.9410
      10     1 Li   3    2.042000    2.042000    4.084000      3.0000       6.9410
      11     1 Li   3    2.042000    0.000000    6.126000      3.0000       6.9410
      12     1 Li   3    0.000000    2.042000    6.126000      3.0000       6.9410
      13     2 H    1    0.000000    2.042000    4.084000      1.0000       1.0079
      14     2 H    1    0.000000    0.000000    6.126000      1.0000       1.0079
      15     2 H    1    2.042000    0.000000    4.084000      1.0000       1.0079
      16     2 H    1    2.042000    2.042000    6.126000      1.0000       1.0079
      17     1 Li   3    0.000000    0.000000    8.168000      3.0000       6.9410
      18     1 Li   3    2.042000    2.042000    8.168000      3.0000       6.9410
      19     1 Li   3    2.042000    0.000000   10.210000      3.0000       6.9410
      20     1 Li   3    0.000000    2.042000   10.210000      3.0000       6.9410
      21     2 H    1    0.000000    2.042000    8.168000      1.0000       1.0079
      22     2 H    1    0.000000    0.000000   10.210000      1.0000       1.0079
      23     2 H    1    2.042000    0.000000    8.168000      1.0000       1.0079
      24     2 H    1    2.042000    2.042000   10.210000      1.0000       1.0079
      25     1 Li   3    0.000000    4.084000    0.000000      3.0000       6.9410
      26     1 Li   3    2.042000    6.126000    0.000000      3.0000       6.9410
      27     1 Li   3    2.042000    4.084000    2.042000      3.0000       6.9410
      28     1 Li   3    0.000000    6.126000    2.042000      3.0000       6.9410
      29     2 H    1    0.000000    6.126000    0.000000      1.0000       1.0079
      30     2 H    1    0.000000    4.084000    2.042000      1.0000       1.0079
      31     2 H    1    2.042000    4.084000    0.000000      1.0000       1.0079
      32     2 H    1    2.042000    6.126000    2.042000      1.0000       1.0079
      33     1 Li   3    0.000000    4.084000    4.084000      3.0000       6.9410
      34     1 Li   3    2.042000    6.126000    4.084000      3.0000       6.9410
      35     1 Li   3    2.042000    4.084000    6.126000      3.0000       6.9410
      36     1 Li   3    0.000000    6.126000    6.126000      3.0000       6.9410
      37     2 H    1    0.000000    6.126000    4.084000      1.0000       1.0079
      38     2 H    1    0.000000    4.084000    6.126000      1.0000       1.0079
      39     2 H    1    2.042000    4.084000    4.084000      1.0000       1.0079
      40     2 H    1    2.042000    6.126000    6.126000      1.0000       1.0079
      41     1 Li   3    0.000000    4.084000    8.168000      3.0000       6.9410
      42     1 Li   3    2.042000    6.126000    8.168000      3.0000       6.9410
      43     1 Li   3    2.042000    4.084000   10.210000      3.0000       6.9410
      44     1 Li   3    0.000000    6.126000   10.210000      3.0000       6.9410
      45     2 H    1    0.000000    6.126000    8.168000      1.0000       1.0079
      46     2 H    1    0.000000    4.084000   10.210000      1.0000       1.0079
      47     2 H    1    2.042000    4.084000    8.168000      1.0000       1.0079
      48     2 H    1    2.042000    6.126000   10.210000      1.0000       1.0079
      49     1 Li   3    0.000000    8.168000    0.000000      3.0000       6.9410
      50     1 Li   3    2.042000   10.210000    0.000000      3.0000       6.9410
      51     1 Li   3    2.042000    8.168000    2.042000      3.0000       6.9410
      52     1 Li   3    0.000000   10.210000    2.042000      3.0000       6.9410
      53     2 H    1    0.000000   10.210000    0.000000      1.0000       1.0079
      54     2 H    1    0.000000    8.168000    2.042000      1.0000       1.0079
      55     2 H    1    2.042000    8.168000    0.000000      1.0000       1.0079
      56     2 H    1    2.042000   10.210000    2.042000      1.0000       1.0079
      57     1 Li   3    0.000000    8.168000    4.084000      3.0000       6.9410
      58     1 Li   3    2.042000   10.210000    4.084000      3.0000       6.9410
      59     1 Li   3    2.042000    8.168000    6.126000      3.0000       6.9410
      60     1 Li   3    0.000000   10.210000    6.126000      3.0000       6.9410
      61     2 H    1    0.000000   10.210000    4.084000      1.0000       1.0079
      62     2 H    1    0.000000    8.168000    6.126000      1.0000       1.0079
      63     2 H    1    2.042000    8.168000    4.084000      1.0000       1.0079
      64     2 H    1    2.042000   10.210000    6.126000      1.0000       1.0079
      65     1 Li   3    0.000000    8.168000    8.168000      3.0000       6.9410
      66     1 Li   3    2.042000   10.210000    8.168000      3.0000       6.9410
      67     1 Li   3    2.042000    8.168000   10.210000      3.0000       6.9410
      68     1 Li   3    0.000000   10.210000   10.210000      3.0000       6.9410
      69     2 H    1    0.000000   10.210000    8.168000      1.0000       1.0079
      70     2 H    1    0.000000    8.168000   10.210000      1.0000       1.0079
      71     2 H    1    2.042000    8.168000    8.168000      1.0000       1.0079
      72     2 H    1    2.042000   10.210000   10.210000      1.0000       1.0079
      73     1 Li   3    4.084000    0.000000    0.000000      3.0000       6.9410
      74     1 Li   3    6.126000    2.042000    0.000000      3.0000       6.9410
      75     1 Li   3    6.126000    0.000000    2.042000      3.0000       6.9410
      76     1 Li   3    4.084000    2.042000    2.042000      3.0000       6.9410
      77     2 H    1    4.084000    2.042000    0.000000      1.0000       1.0079
      78     2 H    1    4.084000    0.000000    2.042000      1.0000       1.0079
      79     2 H    1    6.126000    0.000000    0.000000      1.0000       1.0079
      80     2 H    1    6.126000    2.042000    2.042000      1.0000       1.0079
      81     1 Li   3    4.084000    0.000000    4.084000      3.0000       6.9410
      82     1 Li   3    6.126000    2.042000    4.084000      3.0000       6.9410
      83     1 Li   3    6.126000    0.000000    6.126000      3.0000       6.9410
      84     1 Li   3    4.084000    2.042000    6.126000      3.0000       6.9410
      85     2 H    1    4.084000    2.042000    4.084000      1.0000       1.0079
      86     2 H    1    4.084000    0.000000    6.126000      1.0000       1.0079
      87     2 H    1    6.126000    0.000000    4.084000      1.0000       1.0079
      88     2 H    1    6.126000    2.042000    6.126000      1.0000       1.0079
      89     1 Li   3    4.084000    0.000000    8.168000      3.0000       6.9410
      90     1 Li   3    6.126000    2.042000    8.168000      3.0000       6.9410
      91     1 Li   3    6.126000    0.000000   10.210000      3.0000       6.9410
      92     1 Li   3    4.084000    2.042000   10.210000      3.0000       6.9410
      93     2 H    1    4.084000    2.042000    8.168000      1.0000       1.0079
      94     2 H    1    4.084000    0.000000   10.210000      1.0000       1.0079
      95     2 H    1    6.126000    0.000000    8.168000      1.0000       1.0079
      96     2 H    1    6.126000    2.042000   10.210000      1.0000       1.0079
      97     1 Li   3    4.084000    4.084000    0.000000      3.0000       6.9410
      98     1 Li   3    6.126000    6.126000    0.000000      3.0000       6.9410
      99     1 Li   3    6.126000    4.084000    2.042000      3.0000       6.9410
     100     1 Li   3    4.084000    6.126000    2.042000      3.0000       6.9410
     101     2 H    1    4.084000    6.126000    0.000000      1.0000       1.0079
     102     2 H    1    4.084000    4.084000    2.042000      1.0000       1.0079
     103     2 H    1    6.126000    4.084000    0.000000      1.0000       1.0079
     104     2 H    1    6.126000    6.126000    2.042000      1.0000       1.0079
     105     1 Li   3    4.084000    4.084000    4.084000      3.0000       6.9410
     106     1 Li   3    6.126000    6.126000    4.084000      3.0000       6.9410
     107     1 Li   3    6.126000    4.084000    6.126000      3.0000       6.9410
     108     1 Li   3    4.084000    6.126000    6.126000      3.0000       6.9410
     109     2 H    1    4.084000    6.126000    4.084000      1.0000       1.0079
     110     2 H    1    4.084000    4.084000    6.126000      1.0000       1.0079
     111     2 H    1    6.126000    4.084000    4.084000      1.0000       1.0079
     112     2 H    1    6.126000    6.126000    6.126000      1.0000       1.0079
     113     1 Li   3    4.084000    4.084000    8.168000      3.0000       6.9410
     114     1 Li   3    6.126000    6.126000    8.168000      3.0000       6.9410
     115     1 Li   3    6.126000    4.084000   10.210000      3.0000       6.9410
     116     1 Li   3    4.084000    6.126000   10.210000      3.0000       6.9410
     117     2 H    1    4.084000    6.126000    8.168000      1.0000       1.0079
     118     2 H    1    4.084000    4.084000   10.210000      1.0000       1.0079
     119     2 H    1    6.126000    4.084000    8.168000      1.0000       1.0079
     120     2 H    1    6.126000    6.126000   10.210000      1.0000       1.0079
     121     1 Li   3    4.084000    8.168000    0.000000      3.0000       6.9410
     122     1 Li   3    6.126000   10.210000    0.000000      3.0000       6.9410
     123     1 Li   3    6.126000    8.168000    2.042000      3.0000       6.9410
     124     1 Li   3    4.084000   10.210000    2.042000      3.0000       6.9410
     125     2 H    1    4.084000   10.210000    0.000000      1.0000       1.0079
     126     2 H    1    4.084000    8.168000    2.042000      1.0000       1.0079
     127     2 H    1    6.126000    8.168000    0.000000      1.0000       1.0079
     128     2 H    1    6.126000   10.210000    2.042000      1.0000       1.0079
     129     1 Li   3    4.084000    8.168000    4.084000      3.0000       6.9410
     130     1 Li   3    6.126000   10.210000    4.084000      3.0000       6.9410
     131     1 Li   3    6.126000    8.168000    6.126000      3.0000       6.9410
     132     1 Li   3    4.084000   10.210000    6.126000      3.0000       6.9410
     133     2 H    1    4.084000   10.210000    4.084000      1.0000       1.0079
     134     2 H    1    4.084000    8.168000    6.126000      1.0000       1.0079
     135     2 H    1    6.126000    8.168000    4.084000      1.0000       1.0079
     136     2 H    1    6.126000   10.210000    6.126000      1.0000       1.0079
     137     1 Li   3    4.084000    8.168000    8.168000      3.0000       6.9410
     138     1 Li   3    6.126000   10.210000    8.168000      3.0000       6.9410
     139     1 Li   3    6.126000    8.168000   10.210000      3.0000       6.9410
     140     1 Li   3    4.084000   10.210000   10.210000      3.0000       6.9410
     141     2 H    1    4.084000   10.210000    8.168000      1.0000       1.0079
     142     2 H    1    4.084000    8.168000   10.210000      1.0000       1.0079
     143     2 H    1    6.126000    8.168000    8.168000      1.0000       1.0079
     144     2 H    1    6.126000   10.210000   10.210000      1.0000       1.0079
     145     1 Li   3    8.168000    0.000000    0.000000      3.0000       6.9410
     146     1 Li   3   10.210000    2.042000    0.000000      3.0000       6.9410
     147     1 Li   3   10.210000    0.000000    2.042000      3.0000       6.9410
     148     1 Li   3    8.168000    2.042000    2.042000      3.0000       6.9410
     149     2 H    1    8.168000    2.042000    0.000000      1.0000       1.0079
     150     2 H    1    8.168000    0.000000    2.042000      1.0000       1.0079
     151     2 H    1   10.210000    0.000000    0.000000      1.0000       1.0079
     152     2 H    1   10.210000    2.042000    2.042000      1.0000       1.0079
     153     1 Li   3    8.168000    0.000000    4.084000      3.0000       6.9410
     154     1 Li   3   10.210000    2.042000    4.084000      3.0000       6.9410
     155     1 Li   3   10.210000    0.000000    6.126000      3.0000       6.9410
     156     1 Li   3    8.168000    2.042000    6.126000      3.0000       6.9410
     157     2 H    1    8.168000    2.042000    4.084000      1.0000       1.0079
     158     2 H    1    8.168000    0.000000    6.126000      1.0000       1.0079
     159     2 H    1   10.210000    0.000000    4.084000      1.0000       1.0079
     160     2 H    1   10.210000    2.042000    6.126000      1.0000       1.0079
     161     1 Li   3    8.168000    0.000000    8.168000      3.0000       6.9410
     162     1 Li   3   10.210000    2.042000    8.168000      3.0000       6.9410
     163     1 Li   3   10.210000    0.000000   10.210000      3.0000       6.9410
     164     1 Li   3    8.168000    2.042000   10.210000      3.0000       6.9410
     165     2 H    1    8.168000    2.042000    8.168000      1.0000       1.0079
     166     2 H    1    8.168000    0.000000   10.210000      1.0000       1.0079
     167     2 H    1   10.210000    0.000000    8.168000      1.0000       1.0079
     168     2 H    1   10.210000    2.042000   10.210000      1.0000       1.0079
     169     1 Li   3    8.168000    4.084000    0.000000      3.0000       6.9410
     170     1 Li   3   10.210000    6.126000    0.000000      3.0000       6.9410
     171     1 Li   3   10.210000    4.084000    2.042000      3.0000       6.9410
     172     1 Li   3    8.168000    6.126000    2.042000      3.0000       6.9410
     173     2 H    1    8.168000    6.126000    0.000000      1.0000       1.0079
     174     2 H    1    8.168000    4.084000    2.042000      1.0000       1.0079
     175     2 H    1   10.210000    4.084000    0.000000      1.0000       1.0079
     176     2 H    1   10.210000    6.126000    2.042000      1.0000       1.0079
     177     1 Li   3    8.168000    4.084000    4.084000      3.0000       6.9410
     178     1 Li   3   10.210000    6.126000    4.084000      3.0000       6.9410
     179     1 Li   3   10.210000    4.084000    6.126000      3.0000       6.9410
     180     1 Li   3    8.168000    6.126000    6.126000      3.0000       6.9410
     181     2 H    1    8.168000    6.126000    4.084000      1.0000       1.0079
     182     2 H    1    8.168000    4.084000    6.126000      1.0000       1.0079
     183     2 H    1   10.210000    4.084000    4.084000      1.0000       1.0079
     184     2 H    1   10.210000    6.126000    6.126000      1.0000       1.0079
     185     1 Li   3    8.168000    4.084000    8.168000      3.0000       6.9410
     186     1 Li   3   10.210000    6.126000    8.168000      3.0000       6.9410
     187     1 Li   3   10.210000    4.084000   10.210000      3.0000       6.9410
     188     1 Li   3    8.168000    6.126000   10.210000      3.0000       6.9410
     189     2 H    1    8.168000    6.126000    8.168000      1.0000       1.0079
     190     2 H    1    8.168000    4.084000   10.210000      1.0000       1.0079
     191     2 H    1   10.210000    4.084000    8.168000      1.0000       1.0079
     192     2 H    1   10.210000    6.126000   10.210000      1.0000       1.0079
     193     1 Li   3    8.168000    8.168000    0.000000      3.0000       6.9410
     194     1 Li   3   10.210000   10.210000    0.000000      3.0000       6.9410
     195     1 Li   3   10.210000    8.168000    2.042000      3.0000       6.9410
     196     1 Li   3    8.168000   10.210000    2.042000      3.0000       6.9410
     197     2 H    1    8.168000   10.210000    0.000000      1.0000       1.0079
     198     2 H    1    8.168000    8.168000    2.042000      1.0000       1.0079
     199     2 H    1   10.210000    8.168000    0.000000      1.0000       1.0079
     200     2 H    1   10.210000   10.210000    2.042000      1.0000       1.0079
     201     1 Li   3    8.168000    8.168000    4.084000      3.0000       6.9410
     202     1 Li   3   10.210000   10.210000    4.084000      3.0000       6.9410
     203     1 Li   3   10.210000    8.168000    6.126000      3.0000       6.9410
     204     1 Li   3    8.168000   10.210000    6.126000      3.0000       6.9410
     205     2 H    1    8.168000   10.210000    4.084000      1.0000       1.0079
     206     2 H    1    8.168000    8.168000    6.126000      1.0000       1.0079
     207     2 H    1   10.210000    8.168000    4.084000      1.0000       1.0079
     208     2 H    1   10.210000   10.210000    6.126000      1.0000       1.0079
     209     1 Li   3    8.168000    8.168000    8.168000      3.0000       6.9410
     210     1 Li   3   10.210000   10.210000    8.168000      3.0000       6.9410
     211     1 Li   3   10.210000    8.168000   10.210000      3.0000       6.9410
     212     1 Li   3    8.168000   10.210000   10.210000      3.0000       6.9410
     213     2 H    1    8.168000   10.210000    8.168000      1.0000       1.0079
     214     2 H    1    8.168000    8.168000   10.210000      1.0000       1.0079
     215     2 H    1   10.210000    8.168000    8.168000      1.0000       1.0079
     216     2 H    1   10.210000   10.210000   10.210000      1.0000       1.0079




 SCF PARAMETERS         Density guess:                                   RESTART
                        --------------------------------------------------------
                        max_scf:                                              20
                        max_scf_history:                                       0
                        max_diis:                                              4
                        --------------------------------------------------------
                        eps_scf:                                        1.00E-06
                        eps_scf_history:                                0.00E+00
                        eps_diis:                                       1.00E-01
                        eps_eigval:                                     1.00E-05
                        --------------------------------------------------------
                        level_shift [a.u.]:                                 0.00
                        --------------------------------------------------------
                        No outer SCF

 PW_GRID| Information for grid number                                          1
 PW_GRID| Grid distributed over                                  2048 processors
 PW_GRID| Real space group dimensions                                    32   64
 PW_GRID| the grid is blocked:                                               YES
 PW_GRID| Cutoff [a.u.]                                                    150.0
 PW_GRID| spherical cutoff:                                                   NO
 PW_GRID|   Bounds   1            -64      63                Points:         128
 PW_GRID|   Bounds   2            -64      63                Points:         128
 PW_GRID|   Bounds   3            -64      63                Points:         128
 PW_GRID| Volume element (a.u.^3)  0.5918E-02     Volume (a.u.^3)     12411.3085
 PW_GRID| Grid span                                                    FULLSPACE
 PW_GRID|   Distribution                         Average         Max         Min
 PW_GRID|   G-Vectors                             1024.0        1024        1024
 PW_GRID|   G-Rays                                   8.0           8           8
 PW_GRID|   Real Space Points                     1024.0        1024        1024

 PW_GRID| Information for grid number                                          2
 PW_GRID| Number of the reference grid                                         1
 PW_GRID| Grid distributed over                                  2048 processors
 PW_GRID| Real space group dimensions                                    32   64
 PW_GRID| the grid is blocked:                                                NO
 PW_GRID| Cutoff [a.u.]                                                     50.0
 PW_GRID| spherical cutoff:                                                   NO
 PW_GRID|   Bounds   1            -37      37                Points:          75
 PW_GRID|   Bounds   2            -37      37                Points:          75
 PW_GRID|   Bounds   3            -37      37                Points:          75
 PW_GRID| Volume element (a.u.^3)  0.2942E-01     Volume (a.u.^3)     12411.3085
 PW_GRID| Grid span                                                    FULLSPACE
 PW_GRID|   Distribution                         Average         Max         Min
 PW_GRID|   G-Vectors                              206.0         600           0
 PW_GRID|   G-Rays                                   2.7           8           0
 PW_GRID|   Real Space Points                      206.0         450         150

 PW_GRID| Information for grid number                                          3
 PW_GRID| Number of the reference grid                                         1
 PW_GRID| Grid distributed over                                  2048 processors
 PW_GRID| Real space group dimensions                                    32   64
 PW_GRID| the grid is blocked:                                                NO
 PW_GRID| Cutoff [a.u.]                                                     16.7
 PW_GRID| spherical cutoff:                                                   NO
 PW_GRID|   Bounds   1            -22      22                Points:          45
 PW_GRID|   Bounds   2            -22      22                Points:          45
 PW_GRID|   Bounds   3            -22      22                Points:          45
 PW_GRID| Volume element (a.u.^3)  0.1362         Volume (a.u.^3)     12411.3085
 PW_GRID| Grid span                                                    FULLSPACE
 PW_GRID|   Distribution                         Average         Max         Min
 PW_GRID|   G-Vectors                               44.5         360           0
 PW_GRID|   G-Rays                                   1.0           8           0
 PW_GRID|   Real Space Points                       44.5          90           0

 PW_GRID| Information for grid number                                          4
 PW_GRID| Number of the reference grid                                         1
 PW_GRID| Grid distributed over                                  2048 processors
 PW_GRID| Real space group dimensions                                    32   64
 PW_GRID| the grid is blocked:                                                NO
 PW_GRID| Cutoff [a.u.]                                                      5.6
 PW_GRID| spherical cutoff:                                                   NO
 PW_GRID|   Bounds   1            -12      12                Points:          25
 PW_GRID|   Bounds   2            -12      12                Points:          25
 PW_GRID|   Bounds   3            -12      12                Points:          25
 PW_GRID| Volume element (a.u.^3)  0.7943         Volume (a.u.^3)     12411.3085
 PW_GRID| Grid span                                                    FULLSPACE
 PW_GRID|   Distribution                         Average         Max         Min
 PW_GRID|   G-Vectors                                7.6         200           0
 PW_GRID|   G-Rays                                   0.3           8           0
 PW_GRID|   Real Space Points                        7.6          25           0

 POISSON| Solver                                                        PERIODIC
 POISSON| Periodicity                                                        XYZ

 RS_GRID| Information for grid number                                          1
 RS_GRID|   Bounds   1            -64      63                Points:         128
 RS_GRID|   Bounds   2            -64      63                Points:         128
 RS_GRID|   Bounds   3            -64      63                Points:         128
 RS_GRID| Real space distribution over                                  8 groups
 RS_GRID| Real space distribution along direction                              1
 RS_GRID| Border size                                                         25
 RS_GRID| Real space distribution over                                 16 groups
 RS_GRID| Real space distribution along direction                              2
 RS_GRID| Border size                                                         25
 RS_GRID| Real space distribution over                                 16 groups
 RS_GRID| Real space distribution along direction                              3
 RS_GRID| Border size                                                         25
 RS_GRID|   Distribution                         Average         Max         Min
 RS_GRID|   Planes                                  66.0          66          66
 RS_GRID|   Distribution                         Average         Max         Min
 RS_GRID|   Planes                                  58.0          58          58
 RS_GRID|   Distribution                         Average         Max         Min
 RS_GRID|   Planes                                  58.0          58          58

 RS_GRID| Information for grid number                                          2
 RS_GRID|   Bounds   1            -37      37                Points:          75
 RS_GRID|   Bounds   2            -37      37                Points:          75
 RS_GRID|   Bounds   3            -37      37                Points:          75
 RS_GRID| Real space distribution over                                  8 groups
 RS_GRID| Real space distribution along direction                              1
 RS_GRID| Border size                                                         25
 RS_GRID| Real space distribution over                                 16 groups
 RS_GRID| Real space distribution along direction                              2
 RS_GRID| Border size                                                         25
 RS_GRID| Real space distribution over                                 16 groups
 RS_GRID| Real space distribution along direction                              3
 RS_GRID| Border size                                                         25
 RS_GRID|   Distribution                         Average         Max         Min
 RS_GRID|   Planes                                  59.4          60          59
 RS_GRID|   Distribution                         Average         Max         Min
 RS_GRID|   Planes                                  54.7          55          54
 RS_GRID|   Distribution                         Average         Max         Min
 RS_GRID|   Planes                                  54.7          55          54

 RS_GRID| Information for grid number                                          3
 RS_GRID|   Bounds   1            -22      22                Points:          45
 RS_GRID|   Bounds   2            -22      22                Points:          45
 RS_GRID|   Bounds   3            -22      22                Points:          45
 RS_GRID| Real space fully replicated
 RS_GRID| Group size                                                           1

 RS_GRID| Information for grid number                                          4
 RS_GRID|   Bounds   1            -12      12                Points:          25
 RS_GRID|   Bounds   2            -12      12                Points:          25
 RS_GRID|   Bounds   3            -12      12                Points:          25
 RS_GRID| Real space fully replicated
 RS_GRID| Group size                                                           1

  HFX_INFO| Replica ID:                                                        1
  HFX_INFO| FRACTION:                                               1.0000000000
  HFX_INFO| Interaction Potential:                                     TRUNCATED
  HFX_INFO| Cutoff Radius [angstrom]:                               6.0000000000
  HFX_INFO| EPS_SCHWARZ:                                                 1.0E-09
  HFX_INFO| EPS_SCHWARZ_FORCES                                           1.0E-09
  HFX_INFO| EPS_STORAGE_SCALING:                                         1.0E-01
  HFX_INFO| NBINS:                                                            64
  HFX_INFO| BLOCK_SIZE:                                                        1
  HFX_INFO| NUMBER_OF_SHELLS:                                               AUTO
  HFX_INFO| Number of periodic shells considered:                             -1
  HFX_INFO| Number of periodic cells considered:                              27


 Number of electrons:                                                        432
 Number of occupied orbitals:                                                216
 Number of molecular orbitals:                                               216

 Number of orbital functions:                                               8100
 Number of independent orbital functions:                                   8100

 Extrapolation method: initial_guess


 SCF WAVEFUNCTION OPTIMIZATION

  ----------------------------------- OT ---------------------------------------
  Minimizer      : CG                  : conjugate gradient
  Preconditioner : FULL_ALL            : diagonalization, state selective
  Precond_solver : DEFAULT
  Line search    : 2PNT                : 2 energies, one gradient
  stepsize       :    0.15000000                  energy_gap     :    0.08000000
  eps_taylor     :   0.10000E-15                  max_taylor     :             4
  ----------------------------------- OT ---------------------------------------

  Step     Update method      Time    Convergence         Total energy    Change
  ------------------------------------------------------------------------------

  HFX_MEM_INFO| Est. max. program size before HFX [MiB]:                     329
  HFX_MEM_INFO| Number of cart. primitive ERI's calculated:       18728082069295
  HFX_MEM_INFO| Number of sph. ERI's calculated:                   4747425803902
  HFX_MEM_INFO| Number of sph. ERI's stored in-core:               3559832631419
  HFX_MEM_INFO| Number of sph. ERI's stored on disk:                           0
  HFX_MEM_INFO| Number of sph. ERI's calculated on the fly:                    0
  HFX_MEM_INFO| Total memory consumption ERI's RAM [MiB]:                3875068
  HFX_MEM_INFO| Whereof max-vals [MiB]:                                    60068
  HFX_MEM_INFO| Total compression factor ERI's RAM:                         7.01
  HFX_MEM_INFO| Total memory consumption ERI's disk [MiB]:                     0
  HFX_MEM_INFO| Total compression factor ERI's disk:                        0.00
  HFX_MEM_INFO| Size of density/Fock matrix [MiB]:                           502
  HFX_MEM_INFO| Size of buffers [MiB]:                                        66
  HFX_MEM_INFO| Number of periodic image cells considered:                    27
  HFX_MEM_INFO| Est. max. program size after HFX  [MiB]:                    3122

     1 OT CG       0.15E+00  154.4     0.03466158      -870.3838135131 -8.70E+02
     2 OT LS       0.15E-02    7.7                   198259.2223062409
     3 OT CG       0.15E-02    7.6   129.82741623      1547.9094819850  2.42E+03
     4 OT LS       0.74E-03    7.2                   643434.3818832902
     5 OT CG       0.74E-03    7.4  1054.19813997    600416.8139292736  5.99E+05
     6 OT LS       0.37E-03    7.2                   631671.9557173254
     7 OT CG       0.37E-03    7.4  1039.74091848    563430.4969641337 -3.70E+04
     8 OT LS       0.18E-03    7.1                   583280.0261739223
     9 OT CG       0.18E-03    7.3  1017.36165997    578081.5407055416  1.47E+04
    10 OT LS       0.92E-04    7.0                   650817.0585663707
    11 OT CG       0.92E-04    7.4   972.00302161    567278.8171966587 -1.08E+04
    12 OT LS       0.46E-04    7.0                   630075.0828509553
    13 OT CG       0.46E-04    7.4  1005.83509902    627995.9571978251  6.07E+04
    14 OT LS       0.23E-04    7.0                   602628.1969225362
    15 OT CG       0.23E-04    7.4  1044.75479558    581117.4117711228 -4.69E+04
    16 OT LS       0.12E-04    7.0                   650553.3433102046
    17 OT CG       0.12E-04    7.4   965.56733116    589147.3292767217  8.03E+03
    18 OT LS       0.58E-05    7.0                   538087.2919260331
    19 OT CG       0.58E-05    7.4   931.99459150    614193.7548135242  2.50E+04
    20 OT LS       0.29E-05    7.0                   607253.9933119272

  Leaving inner SCF loop after reaching    20 steps.


  Electronic density on regular grids:       -347.4628622830       84.5371377170
  Core density on regular grids:              432.0000000000       -0.0000000000
  Hard and soft densities (Lebedev):         -876.2406267504     -792.0858028982
  Total Rho_soft + Rho1_hard - Rho1_soft     -431.6176861352
  Total charge density (r-space):               0.3823138647
  Total Rho_soft + Rho0_soft (g-space):         0.3414158635

  Overlap energy of the core charge distribution:               0.00000000000000
  Self energy of the core charge distribution:               -837.82153156841810
  Core Hamiltonian energy:                                 607179.67868578224443
  Hartree energy:                                             436.72455278876498
  Exchange-correlation energy:                                  0.00000000000000
  Hartree-Fock Exchange energy:                              -382.15817131730478

  GAPW| Exc from hard and soft atomic rho1:                     0.00000000000000
  GAPW| local Eh = 1 center integrals:                        857.56977624188289

  Total energy:                                            607253.99331192718819

 *** WARNING in qs_scf.F:576 :: SCF run NOT converged ***


 !-----------------------------------------------------------------------------!
                     Mulliken Population Analysis

 #  Atom  Element  Kind  Atomic population                           Net charge
       1     Li       1          2.463855                              0.536145
       2     Li       1          2.203074                              0.796926
       3     Li       1          2.188392                              0.811608
       4     Li       1          2.142524                              0.857476
       5     H        2          1.033329                             -0.033329
       6     H        2          0.778112                              0.221888
       7     H        2          0.903205                              0.096795
       8     H        2          0.827697                              0.172303
       9     Li       1          2.112547                              0.887453
      10     Li       1          1.855509                              1.144491
      11     Li       1          2.184931                              0.815069
      12     Li       1          2.179988                              0.820012
      13     H        2          0.843610                              0.156390
      14     H        2          0.917408                              0.082592
      15     H        2          0.789443                              0.210557
      16     H        2          0.900960                              0.099040
      17     Li       1          2.256518                              0.743482
      18     Li       1          2.117847                              0.882153
      19     Li       1          2.306321                              0.693679
      20     Li       1          2.212618                              0.787382
      21     H        2          0.854615                              0.145385
      22     H        2          1.136724                             -0.136724
      23     H        2          0.953547                              0.046453
      24     H        2          1.046279                             -0.046279
      25     Li       1          2.163664                              0.836336
      26     Li       1          2.203201                              0.796799
      27     Li       1          1.838369                              1.161631
      28     Li       1          2.239549                              0.760451
      29     H        2          0.921216                              0.078784
      30     H        2          0.858028                              0.141972
      31     H        2          0.995522                              0.004478
      32     H        2          0.887956                              0.112044
      33     Li       1          2.252619                              0.747381
      34     Li       1          2.126505                              0.873495
      35     Li       1          2.309014                              0.690986
      36     Li       1          2.451133                              0.548867
      37     H        2          0.912465                              0.087535
      38     H        2          0.915814                              0.084186
      39     H        2          0.721999                              0.278001
      40     H        2          0.818565                              0.181435
      41     Li       1          2.277300                              0.722700
      42     Li       1          2.140040                              0.859960
      43     Li       1          2.113484                              0.886516
      44     Li       1          2.407126                              0.592874
      45     H        2          1.048625                             -0.048625
      46     H        2          0.827357                              0.172643
      47     H        2          0.836897                              0.163103
      48     H        2          0.914554                              0.085446
      49     Li       1          2.600060                              0.399940
      50     Li       1          2.300505                              0.699495
      51     Li       1          1.975116                              1.024884
      52     Li       1          2.418200                              0.581800
      53     H        2          1.245693                             -0.245693
      54     H        2          0.777099                              0.222901
      55     H        2          0.907417                              0.092583
      56     H        2          0.798997                              0.201003
      57     Li       1          2.149899                              0.850101
      58     Li       1          2.078067                              0.921933
      59     Li       1          2.302495                              0.697505
      60     Li       1          2.519252                              0.480748
      61     H        2          0.715659                              0.284341
      62     H        2          1.093079                             -0.093079
      63     H        2          0.852240                              0.147760
      64     H        2          0.877883                              0.122117
      65     Li       1          3.224065                             -0.224065
      66     Li       1          2.386015                              0.613985
      67     Li       1          2.202831                              0.797169
      68     Li       1          2.806387                              0.193613
      69     H        2          1.610545                             -0.610545
      70     H        2          1.076483                             -0.076483
      71     H        2          0.975003                              0.024997
      72     H        2          0.956229                              0.043771
      73     Li       1          2.159035                              0.840965
      74     Li       1          2.032609                              0.967391
      75     Li       1          2.145403                              0.854597
      76     Li       1          2.060418                              0.939582
      77     H        2          0.912984                              0.087016
      78     H        2          0.725680                              0.274320
      79     H        2          0.801107                              0.198893
      80     H        2          0.980746                              0.019254
      81     Li       1          2.086026                              0.913974
      82     Li       1          1.957101                              1.042899
      83     Li       1          2.072676                              0.927324
      84     Li       1          2.189979                              0.810021
      85     H        2          0.831909                              0.168091
      86     H        2          0.695626                              0.304374
      87     H        2          0.778145                              0.221855
      88     H        2          1.075192                             -0.075192
      89     Li       1          2.068310                              0.931690
      90     Li       1          2.232107                              0.767893
      91     Li       1          2.175287                              0.824713
      92     Li       1          2.149963                              0.850037
      93     H        2          0.782192                              0.217808
      94     H        2          0.946559                              0.053441
      95     H        2          0.844801                              0.155199
      96     H        2          0.768634                              0.231366
      97     Li       1          2.003470                              0.996530
      98     Li       1          2.248431                              0.751569
      99     Li       1          1.897412                              1.102588
     100     Li       1          2.117224                              0.882776
     101     H        2          0.808434                              0.191566
     102     H        2          0.827918                              0.172082
     103     H        2          0.962221                              0.037779
     104     H        2          0.917872                              0.082128
     105     Li       1          2.089817                              0.910183
     106     Li       1          2.267318                              0.732682
     107     Li       1          2.252299                              0.747701
     108     Li       1          2.136387                              0.863613
     109     H        2          0.842376                              0.157624
     110     H        2          0.881013                              0.118987
     111     H        2          0.959462                              0.040538
     112     H        2          0.773002                              0.226998
     113     Li       1          2.039230                              0.960770
     114     Li       1          2.144563                              0.855437
     115     Li       1          1.990923                              1.009077
     116     Li       1          2.327168                              0.672832
     117     H        2          0.986378                              0.013622
     118     H        2          0.955010                              0.044990
     119     H        2          0.926715                              0.073285
     120     H        2          0.857264                              0.142736
     121     Li       1          2.093226                              0.906774
     122     Li       1          2.550562                              0.449438
     123     Li       1          2.400439                              0.599561
     124     Li       1          2.037349                              0.962651
     125     H        2          0.923481                              0.076519
     126     H        2          1.031137                             -0.031137
     127     H        2          1.010798                             -0.010798
     128     H        2          0.898479                              0.101521
     129     Li       1          2.177000                              0.823000
     130     Li       1          2.293733                              0.706267
     131     Li       1          2.273203                              0.726797
     132     Li       1          1.987502                              1.012498
     133     H        2          1.010567                             -0.010567
     134     H        2          0.960100                              0.039900
     135     H        2          0.970638                              0.029362
     136     H        2          1.214733                             -0.214733
[...]
|  49.2% | 14,488.4 |      -- |    -- | USER
||----------------------------------------------------------------------------
||  17.7% |  5,226.5 |   371.5 |  6.6% | __hfx_energy_potential_MOD_update_fock_matrix.constprop.0
||   6.2% |  1,820.3 |   519.7 | 22.2% | __hfx_energy_potential_MOD_integrate_four_center._omp_fn.0
||   2.2% |    648.1 |   102.9 | 13.7% | __hfx_compression_methods_MOD_hfx_get_mult_cache_elements
||   1.5% |    442.6 |    83.4 | 15.9% | __t_c_g0_MOD_pd2val
||============================================================================
|  38.8% | 11,428.5 |      -- |    -- | ETC
||----------------------------------------------------------------------------
||  28.8% |  8,488.7 |   382.3 |  4.3% | BI_Srecv
||   2.8% |    827.0 |   356.0 | 30.1% | Cdgebr2d
||   2.4% |    706.7 | 1,617.3 | 69.6% | GOMP_parallel
||============================================================================
|  11.8% |  3,464.9 |      -- |    -- | MPI
||----------------------------------------------------------------------------
||   3.5% |  1,028.9 |    59.1 |  5.4% | MPI_WAITALL
||   3.2% |    943.6 |   510.4 | 35.1% | MPI_BARRIER
||   2.8% |    825.3 |   111.7 | 11.9% | MPI_ALLREDUCE
|=============================================================================

Notes for table 2:

  This table shows functions, and line numbers within functions, that
    have significant exclusive sample hits, averaged across ranks.
  For further explanation, see the "General table notes" below,
    or use:  pat_report -v -O samp_profile+src ...

Table 2:  Profile by Group, Function, and Line

  Samp% |     Samp |  Imb. |  Imb. | Group
        |          |  Samp | Samp% |  Function=[MAX10]
        |          |       |       |   Source
        |          |       |       |    Line
        |          |       |       |     PE=HIDE
        |          |       |       |      Thread=HIDE
       
 100.0% | 29,465.1 |    -- |    -- | Total
|-----------------------------------------------------------------------------
|  49.2% | 14,488.4 |    -- |    -- | USER
||----------------------------------------------------------------------------
||  17.7% |  5,226.5 |    -- |    -- | __hfx_energy_potential_MOD_update_fock_matrix.constprop.0
3|        |          |       |       |  CP2K/cp2k-8.2/src/hfx_energy_potential.F
||||--------------------------------------------------------------------------
4|||   2.8% |    817.9 | 113.1 | 12.2% | line.2580
4|||   3.0% |    891.6 | 105.4 | 10.6% | line.2603
4|||   1.8% |    543.1 | 115.9 | 17.6% | line.2626
4|||   1.1% |    310.6 |  88.4 | 22.2% | line.2637
4|||   2.6% |    759.7 |  96.3 | 11.3% | line.2649
||||==========================================================================
||   6.2% |  1,820.3 |    -- |    -- | __hfx_energy_potential_MOD_integrate_four_center._omp_fn.0
3|   5.7% |  1,668.2 |    -- |    -- |  CP2K/cp2k-8.2/src/hfx_energy_potential.F
||   2.2% |    648.1 |    -- |    -- | __hfx_compression_methods_MOD_hfx_get_mult_cache_elements
3|        |          |       |       |  CP2K/cp2k-8.2/src/hfx_compression_methods.F
4|   1.4% |    423.0 |  79.0 | 15.7% |   line.442
||   1.5% |    442.6 |    -- |    -- | __t_c_g0_MOD_pd2val
3|        |          |       |       |  cp2k-8.2/src/common/t_c_g0.F
||============================================================================
|  38.8% | 11,428.5 |    -- |    -- | ETC
||----------------------------------------------------------------------------
||  28.8% |  8,488.7 | 382.3 |  4.3% | BI_Srecv
||   2.8% |    827.0 | 356.0 | 30.1% | Cdgebr2d
||   2.4% |    706.7 |    -- |    -- | GOMP_parallel
3|        |          |       |       |  ../cpe-gcc-11.2.0-202108140355.9bf1fd589a5c1/libgomp/parallel.c
4|   2.3% |    672.6 | 112.4 | 14.3% |   line.179
||============================================================================
|  11.8% |  3,464.9 |    -- |    -- | MPI
||----------------------------------------------------------------------------
||   3.5% |  1,028.9 |  59.1 |  5.4% | MPI_WAITALL
||   3.2% |    943.6 | 510.4 | 35.1% | MPI_BARRIER
||   2.8% |    825.3 | 111.7 | 11.9% | MPI_ALLREDUCE
|=============================================================================

Notes for table 3:

  This table shows functions that have the most significant exclusive
    time, taking for each thread the average time across ranks.
    The imbalance percentage is relative to the team observed to
    participate in execution.
    Use -s th=ALL to see individual thread values.
  For further explanation, see the "General table notes" below,
    or use:  pat_report -v -O profile_th_pe ...

Table 3:  Profile by Function Group and Function

  Samp% |     Samp |    Imb. |   Imb. | Team | Group
        |          |    Samp |  Samp% | Size |  Function=[MAX10]
        |          |         |        |      |   Thread=HIDE
        |          |         |        |      |    PE=HIDE
       
 100.0% | 29,465.1 |      -- |     -- |   -- | Total
|-----------------------------------------------------------------------------
|  49.2% | 14,488.4 |      -- |     -- |   -- | USER
||----------------------------------------------------------------------------
||  17.7% |  5,226.5 | 4,884.3 |  95.0% |   61 | __hfx_energy_potential_MOD_update_fock_matrix.constprop.0
||   6.2% |  1,820.3 | 1,707.6 |  95.4% |   61 | __hfx_energy_potential_MOD_integrate_four_center._omp_fn.0
||   2.2% |    648.1 |   605.6 |  95.0% |   61 | __hfx_compression_methods_MOD_hfx_get_mult_cache_elements
||   1.5% |    442.6 |   103.9 |  29.3% |    5 | __t_c_g0_MOD_pd2val
||============================================================================
|  38.8% | 11,428.5 |      -- |     -- |   -- | ETC
||----------------------------------------------------------------------------
||  28.8% |  8,488.7 |      -- |     -- |    1 | BI_Srecv
||   2.8% |    827.0 |      -- |     -- |    1 | Cdgebr2d
||   2.4% |    706.7 |   565.4 | 100.0% |    5 | GOMP_parallel
||============================================================================
|  11.8% |  3,464.9 |      -- |     -- |   -- | MPI
||----------------------------------------------------------------------------
||   3.5% |  1,028.9 |      -- |     -- |    1 | MPI_WAITALL
||   3.2% |    943.6 |      -- |     -- |    1 | MPI_BARRIER
||   2.8% |    825.3 |   707.4 | 100.0% |    7 | MPI_ALLREDUCE
|=============================================================================

Observation:  Metric-Based Rank Order

    When the use of a shared resource like memory bandwidth is unbalanced
    across nodes, total execution time may be reduced with a rank order
    that improves the balance.  The metric used here for resource usage
    is: USER Samp

    For each node, the metric values for the ranks on that node are
    summed.  The maximum and average value of those sums are shown below
    for both the current rank order and a custom rank order that seeks
    to reduce the maximum value.

    A file named MPICH_RANK_ORDER.USER_Samp was generated
    along with this report and contains usage instructions and the
    Custom rank order from the following table.

       Rank    Node Reduction    Maximum  Average
      Order  Metric    in Max      Value  Value
               Imb.     Value             

    Current  96.93%            5.671e+07  1.739e+06
     Custom   0.04%   96.933%  1.739e+06  1.739e+06


Notes for table 4:

  This table shows memory traffic for numa nodes, taking for each numa
    node the maximum value across nodes. It also shows the balance in
    memory traffic by showing the top 3 and bottom 3 node values.
  For further explanation, see the "General table notes" below,
    or use:  pat_report -v -O mem_bw ...

Table 4:  Memory Bandwidth by Numanode

  Memory |    Read |   Write |     Thread |  Memory |  Memory | Numanode
 Traffic |  Memory |  Memory |       Time | Traffic | Traffic |  Node Id=[max3,min3]
  GBytes | Traffic | Traffic |            |  GBytes |       / |   PE=HIDE
         |  GBytes |  GBytes |            |   / Sec | Nominal |    Thread=HIDE
         |         |         |            |         |    Peak | 
|-----------------------------------------------------------------------------
|  26,709 |  20,532 |   6,177 | 296.028557 |   90.23 |   44.1% | numanode.0
||----------------------------------------------------------------------------
||  26,709 |  20,532 |   6,177 | 296.021748 |   90.23 |   44.1% | nid.0
||  885.58 |  678.53 |  207.04 | 296.011001 |    2.99 |    1.5% | nid.2164
||  848.36 |  642.20 |  206.16 | 295.988552 |    2.87 |    1.4% | nid.6128
||  828.45 |  636.05 |  192.39 | 295.997542 |    2.80 |    1.4% | nid.6181
||  828.17 |  637.90 |  190.27 | 296.005755 |    2.80 |    1.4% | nid.5652
||  821.43 |  636.61 |  184.82 | 295.997991 |    2.78 |    1.4% | nid.2403
||============================================================================
|  27,922 |  21,442 |   6,480 | 296.029873 |   94.32 |   46.1% | numanode.1
||----------------------------------------------------------------------------
||  27,922 |  21,442 |   6,480 | 296.029873 |   94.32 |   46.1% | nid.0
||  858.96 |  652.48 |  206.48 | 295.993942 |    2.90 |    1.4% | nid.2396
||  854.01 |  650.73 |  203.29 | 295.992107 |    2.89 |    1.4% | nid.2189
||  833.39 |  641.46 |  191.92 | 296.009420 |    2.82 |    1.4% | nid.5678
||  833.29 |  638.35 |  194.94 | 295.999173 |    2.82 |    1.4% | nid.2403
||  832.12 |  642.11 |  190.01 | 296.000503 |    2.81 |    1.4% | nid.2196
||============================================================================
|  28,871 |  22,160 |   6,711 | 296.027319 |   97.53 |   47.6% | numanode.2
||----------------------------------------------------------------------------
||  28,871 |  22,160 |   6,711 | 296.021135 |   97.53 |   47.6% | nid.0
||  855.22 |  657.29 |  197.93 | 296.027319 |    2.89 |    1.4% | nid.2167
||  850.89 |  652.22 |  198.67 | 296.001794 |    2.87 |    1.4% | nid.6175
||  840.49 |  653.25 |  187.24 | 296.010888 |    2.84 |    1.4% | nid.5648
||  833.95 |  642.09 |  191.86 | 295.995954 |    2.82 |    1.4% | nid.5683
||  833.51 |  643.24 |  190.27 | 296.009104 |    2.82 |    1.4% | nid.2405
||============================================================================
|  28,764 |  22,127 |   6,637 | 296.029198 |   97.17 |   47.4% | numanode.3
||----------------------------------------------------------------------------
||  28,764 |  22,127 |   6,637 | 296.019066 |   97.17 |   47.4% | nid.0
||  872.11 |  648.93 |  223.18 | 296.000830 |    2.95 |    1.4% | nid.2189
||  862.15 |  652.85 |  209.30 | 295.997290 |    2.91 |    1.4% | nid.6175
||  840.65 |  643.20 |  197.45 | 296.004148 |    2.84 |    1.4% | nid.6181
||  839.53 |  643.42 |  196.12 | 296.010440 |    2.84 |    1.4% | nid.5665
||  838.68 |  645.20 |  193.48 | 296.002395 |    2.83 |    1.4% | nid.2196
||============================================================================
|  28,798 |  22,120 |   6,678 | 296.046562 |   97.27 |   47.5% | numanode.4
||----------------------------------------------------------------------------
||  28,798 |  22,120 |   6,678 | 296.025285 |   97.28 |   47.5% | nid.0
||  876.04 |  652.62 |  223.42 | 296.011260 |    2.96 |    1.4% | nid.5648
||  855.64 |  649.17 |  206.46 | 296.005158 |    2.89 |    1.4% | nid.6179
||  838.76 |  646.74 |  192.02 | 296.005312 |    2.83 |    1.4% | nid.5678
||  835.73 |  644.80 |  190.93 | 295.999408 |    2.82 |    1.4% | nid.5683
||  835.71 |  642.58 |  193.13 | 296.012303 |    2.82 |    1.4% | nid.6177
||============================================================================
|  28,772 |  22,086 |   6,686 | 296.027338 |   97.19 |   47.5% | numanode.5
||----------------------------------------------------------------------------
||  28,772 |  22,086 |   6,686 | 296.023855 |   97.19 |   47.5% | nid.0
||  858.59 |  655.33 |  203.26 | 296.027338 |    2.90 |    1.4% | nid.2167
||  853.50 |  652.95 |  200.55 | 296.007520 |    2.88 |    1.4% | nid.5678
||  836.10 |  638.90 |  197.20 | 296.008260 |    2.82 |    1.4% | nid.6177
||  834.95 |  645.07 |  189.88 | 296.013912 |    2.82 |    1.4% | nid.3914
||  834.20 |  643.27 |  190.93 | 295.996072 |    2.82 |    1.4% | nid.5681
||============================================================================
|  28,841 |  22,067 |   6,774 | 296.029270 |   97.42 |   47.6% | numanode.6
||----------------------------------------------------------------------------
||  28,841 |  22,067 |   6,774 | 296.029270 |   97.42 |   47.6% | nid.0
||  875.44 |  651.70 |  223.74 | 295.998616 |    2.96 |    1.4% | nid.5646
||  858.19 |  652.29 |  205.90 | 296.003328 |    2.90 |    1.4% | nid.6179
||  838.73 |  644.91 |  193.82 | 296.005694 |    2.83 |    1.4% | nid.6195
||  837.59 |  648.60 |  188.99 | 295.998803 |    2.83 |    1.4% | nid.2403
||  834.71 |  646.81 |  187.90 | 296.001944 |    2.82 |    1.4% | nid.2196
||============================================================================
|  21,005 |  16,055 |   4,950 | 296.046531 |   70.95 |   34.6% | numanode.7
||----------------------------------------------------------------------------
||  21,005 |  16,055 |   4,950 | 296.025889 |   70.96 |   34.6% | nid.0
||  839.54 |  627.78 |  211.76 | 296.006431 |    2.84 |    1.4% | nid.6228
||  824.60 |  629.82 |  194.78 | 295.998187 |    2.79 |    1.4% | nid.6171
||  209.03 |  159.48 |   49.54 | 296.026119 |    0.71 |    0.3% | nid.6220
||  208.51 |  160.14 |   48.36 | 296.026798 |    0.70 |    0.3% | nid.2402
||  207.49 |  160.42 |   47.07 | 296.010986 |    0.70 |    0.3% | nid.5679
|=============================================================================

Notes for table 5:

  This table shows energy and power usage for the nodes with the
    maximum, mean, and minimum usage, as well as the sum of usage over
    all nodes.
    Energy and power for accelerators is also shown, if applicable.
  For further explanation, see the "General table notes" below,
    or use:  pat_report -v -O program_energy ...

Table 5:  Program energy and power usage (from Cray PM)

      Node | Node Power |    Process | Node Id=[mmm]
    Energy |        (W) |       Time |  PE=HIDE
       (J) |            |            |   Thread=HIDE
          
 9,115,229 | 30,781.557 | 296.126317 | Total
|---------------------------------------------------
|   146,969 |    496.332 | 296.110026 | nid.2398
|   140,067 |    473.017 | 296.114194 | nid.5646
|   132,268 |    446.671 | 296.119321 | nid.5678
|===================================================

Notes for table 6:

  This table show the average time and number of bytes read from each
    input file, taking the average over the number of ranks that read
    from the file.  It also shows the number of read operations, and
    average rates.
  For further explanation, see the "General table notes" below,
    or use:  pat_report -v -O read_stats ...

Table 6:  File Input Stats by Filename

 Avg Read |  Avg Read |   Read Rate | Number |     Avg |     Bytes/ | File Name=!x/^/(proc|sys)/
 Time per |   MiBytes | MiBytes/sec |     of |   Reads |       Call |  PE=HIDE
   Reader |       per |             | Reader |     per |            | 
     Rank |    Reader |             |  Ranks |  Reader |            | 
          |      Rank |             |        |    Rank |            | 
|-----------------------------------------------------------------------------
| 0.266084 | 11.917282 |   44.787707 |      1 | 1,527.0 |   8,183.48 | ./t_c_g.dat
| 0.066827 | 13.385548 |  200.300276 |      1 |   108.0 | 129,960.78 | B88.wfn
| 0.021187 |  0.258743 |   12.212173 |      1 |    38.0 |   7,139.79 | ./POTENTIAL
| 0.018026 |  0.005267 |    0.292201 |      1 |     3.0 |   1,841.00 | input_bulk_HFX_3.inp
| 0.008213 |  0.004263 |    0.519028 |      1 |     6.0 |     745.00 | ./BASIS_OPT
| 0.000010 |  0.000030 |    2.928497 |  1,937 |     7.7 |       4.00 | _UnknownFile_
|=============================================================================

Notes for table 7:

  This table show the average time and number of bytes written to each
    output file, taking the average over the number of ranks that
    wrote to the file.  It also shows the number of write operations,
    and average rates.
  For further explanation, see the "General table notes" below,
    or use:  pat_report -v -O write_stats ...

Table 7:  File Output Stats by Filename

      Avg |      Avg |   Write Rate | Number |     Avg |    Bytes/ | File Name=!x/^/(proc|sys)/
    Write |    Write |  MiBytes/sec |     of |  Writes |      Call |  PE=HIDE
 Time per |  MiBytes |              | Writer |     per |           | 
   Writer |      per |              |  Ranks |  Writer |           | 
     Rank |   Writer |              |        |    Rank |           | 
          |     Rank |              |        |         |           | 
|-----------------------------------------------------------------------------
| 0.001379 | 0.162825 |   118.057987 |      1 | 2,560.0 |     66.69 | stdout
| 0.000968 | 4.093857 | 4,229.291410 |      1 |    66.0 | 65,041.21 | /dev/shm/ucx_shm_posix_49d45a3a
| 0.000932 | 4.093857 | 4,392.036566 |      1 |    66.0 | 65,041.21 | /dev/shm/ucx_shm_posix_59081ef6
| 0.000912 | 4.093857 | 4,490.897017 |      1 |    66.0 | 65,041.21 | /dev/shm/ucx_shm_posix_399acbe5
| 0.000894 | 4.093857 | 4,579.176225 |      1 |    66.0 | 65,041.21 | /dev/shm/ucx_shm_posix_19fa1211
| 0.000841 | 4.093857 | 4,867.502531 |      1 |    66.0 | 65,041.21 | /dev/shm/ucx_shm_posix_785b0a17
| 0.000836 | 4.093857 | 4,897.742953 |      1 |    66.0 | 65,041.21 | /dev/shm/ucx_shm_posix_7c5a4d95
| 0.000835 | 4.093857 | 4,904.355507 |      1 |    66.0 | 65,041.21 | /dev/shm/ucx_shm_posix_28b14377
| 0.000831 | 4.093857 | 4,929.358416 |      1 |    66.0 | 65,041.21 | /dev/shm/ucx_shm_posix_5ec21746
| 0.000830 | 4.093857 | 4,931.294108 |      1 |    66.0 | 65,041.21 | /dev/shm/ucx_shm_posix_215883f
| 0.000828 | 4.093857 | 4,945.298796 |      1 |    66.0 | 65,041.21 | /dev/shm/ucx_shm_posix_1e3212fa
| 0.000824 | 4.093857 | 4,968.797448 |      1 |    66.0 | 65,041.21 | /dev/shm/ucx_shm_posix_6d25c7ab
| 0.000822 | 4.093857 | 4,977.829779 |      1 |    66.0 | 65,041.21 | /dev/shm/ucx_shm_posix_2a173b29
| 0.000818 | 4.093857 | 5,004.262220 |      1 |    66.0 | 65,041.21 | /dev/shm/ucx_shm_posix_14e6c6ac
| 0.000811 | 4.093857 | 5,045.541874 |      1 |    66.0 | 65,041.21 | /dev/shm/ucx_shm_posix_7cfd0be5
|=============================================================================

Table 8:  Lustre File Information

            File Path |    Stripe | Stripe | Stripe | OST list
                      |      size | offset |  count | 
--------------------------------------------------------------
 input_bulk_HFX_3.inp | 1,048,576 |      0 |      1 | 4
          ./BASIS_OPT | 1,048,576 |      0 |      1 | 3
          ./POTENTIAL | 1,048,576 |      0 |      1 | 6
              B88.wfn | 1,048,576 |      0 |      1 | 2
          ./t_c_g.dat | 1,048,576 |      0 |      1 | 7
==============================================================
Program invocation:
  /work/z19/z19/aturner/software/CP2K/cp2k-8.2/exe/ARCHER2/cp2k.psmp -i input_bulk_HFX_3.inp

For a complete report with expanded tables and notes, run:
  pat_report /mnt/lustre/a2fs-work2/work/z19/z19/aturner/benchmark/ofi-vs-ucx/CP2K/LiH_HFX/calc/UCX/cp2k.psmp+117615-2164s

For help identifying callers of particular functions:
  pat_report -O callers+src /mnt/lustre/a2fs-work2/work/z19/z19/aturner/benchmark/ofi-vs-ucx/CP2K/LiH_HFX/calc/UCX/cp2k.psmp+117615-2164s
To see the entire call tree:
  pat_report -O calltree+src /mnt/lustre/a2fs-work2/work/z19/z19/aturner/benchmark/ofi-vs-ucx/CP2K/LiH_HFX/calc/UCX/cp2k.psmp+117615-2164s

For interactive, graphical performance analysis, run:
  app2 /mnt/lustre/a2fs-work2/work/z19/z19/aturner/benchmark/ofi-vs-ucx/CP2K/LiH_HFX/calc/UCX/cp2k.psmp+117615-2164s

================  End of CrayPat-lite output  ==========================
