 DBCSR| CPU Multiplication driver                                           BLAS
 DBCSR| Multrec recursion limit                                              512
 DBCSR| Multiplication stack size                                           1000
 DBCSR| Maximum elements for images                                    UNLIMITED
 DBCSR| Multiplicative factor virtual images                                   1
 DBCSR| Use multiplication densification                                       T
 DBCSR| Multiplication size stacks                                             3
 DBCSR| Use memory pool for CPU allocation                                     F
 DBCSR| Number of 3D layers                                               SINGLE
 DBCSR| Use MPI memory allocation                                              F
 DBCSR| Use RMA algorithm                                                      F
 DBCSR| Use Communication thread                                               T
 DBCSR| Communication thread load                                             75
 DBCSR| MPI: My node id                                                        0
 DBCSR| MPI: Number of nodes                                                1024
 DBCSR| OMP: Current number of threads                                         4
 DBCSR| OMP: Max number of threads                                             4
 DBCSR| Split modifier for TAS multiplication algorithm                  1.0E+00


  **** **** ******  **  PROGRAM STARTED AT               2022-03-23 15:21:27.659
 ***** ** ***  *** **   PROGRAM STARTED ON                             nid004968
 **    ****   ******    PROGRAM STARTED BY                               aturner
 ***** **    ** ** **   PROGRAM PROCESS ID                                136222
  **** **  *******  **  PROGRAM STARTED IN /mnt/lustre/a2fs-work2/work/z19/z19/a
                                           turner/benchmark/ofi-vs-ucx/CP2K/LiH_
                                           HFX/calc/UCX

 CP2K| version string:                                          CP2K version 8.2
 CP2K| source code revision number:                                  git:310b7ab
 CP2K| cp2kflags: omp libint fftw3 libxc elpa parallel mpi3 scalapack           
 CP2K| is freely available from                            https://www.cp2k.org/
 CP2K| Program compiled at                          Wed 23 Mar 12:19:29 GMT 2022
 CP2K| Program compiled on                                                  ln04
 CP2K| Program compiled for                                              ARCHER2
 CP2K| Data directory path                   /work/y07/shared/cp2k/cp2k-8.1/data
 CP2K| Input file name                                      input_bulk_HFX_3.inp

 GLOBAL| Force Environment number                                              1
 GLOBAL| Basis set file name                                         ./BASIS_OPT
 GLOBAL| Potential file name                                         ./POTENTIAL
 GLOBAL| MM Potential file name                                     MM_POTENTIAL
 GLOBAL| Coordinate file name                                      __STD_INPUT__
 GLOBAL| Method name                                                        CP2K
 GLOBAL| Project name                                                 LiH_bulk_3
 GLOBAL| Run type                                                         ENERGY
 GLOBAL| FFT library                                                       FFTW3
 GLOBAL| Diagonalization library                                            ELPA
 GLOBAL| Minimum number of eigenvectors for ELPA usage                        16
 GLOBAL| Orthonormality check for eigenvectors                          DISABLED
 GLOBAL| Matrix multiplication library                                    SCALAP
 GLOBAL| All-to-all communication in single precision                          F
 GLOBAL| FFTs using library dependent lengths                                  F
 GLOBAL| Grid backend                                                       AUTO
 GLOBAL| Global print level                                               MEDIUM
 GLOBAL| MPI I/O enabled                                                       T
 GLOBAL| Total number of message passing processes                          1024
 GLOBAL| Number of threads for this process                                    4
 GLOBAL| This output is from process                                           0
 GLOBAL| CPU model name                          AMD EPYC 7742 64-Core Processor
 GLOBAL| CPUID                                                              1002

 MEMORY| system memory details [Kb]
 MEMORY|                        rank 0           min           max       average
 MEMORY| MemTotal            263528088     263528084     263528088     263528087
 MEMORY| MemFree             246990964     244852216     247656456     246478883
 MEMORY| Buffers                 36236         27020         38480         32630
 MEMORY| Cached                1444276       1269584       3083580       1888509
 MEMORY| Slab                  1769108       1553784       1849900       1711720
 MEMORY| SReclaimable           224636         87168        229540        165791
 MEMORY| MemLikelyFree       248696112     248169052     249045688     248565814


 *** Fundamental physical constants (SI units) ***

 *** Literature: B. J. Mohr and B. N. Taylor,
 ***             CODATA recommended values of the fundamental physical
 ***             constants: 2006, Web Version 5.1
 ***             http://physics.nist.gov/constants

 Speed of light in vacuum [m/s]                             2.99792458000000E+08
 Magnetic constant or permeability of vacuum [N/A**2]       1.25663706143592E-06
 Electric constant or permittivity of vacuum [F/m]          8.85418781762039E-12
 Planck constant (h) [J*s]                                  6.62606896000000E-34
 Planck constant (h-bar) [J*s]                              1.05457162825177E-34
 Elementary charge [C]                                      1.60217648700000E-19
 Electron mass [kg]                                         9.10938215000000E-31
 Electron g factor [ ]                                     -2.00231930436220E+00
 Proton mass [kg]                                           1.67262163700000E-27
 Fine-structure constant                                    7.29735253760000E-03
 Rydberg constant [1/m]                                     1.09737315685270E+07
 Avogadro constant [1/mol]                                  6.02214179000000E+23
 Boltzmann constant [J/K]                                   1.38065040000000E-23
 Atomic mass unit [kg]                                      1.66053878200000E-27
 Bohr radius [m]                                            5.29177208590000E-11

 *** Conversion factors ***

 [u] -> [a.u.]                                              1.82288848426455E+03
 [Angstrom] -> [Bohr] = [a.u.]                              1.88972613288564E+00
 [a.u.] = [Bohr] -> [Angstrom]                              5.29177208590000E-01
 [a.u.] -> [s]                                              2.41888432650478E-17
 [a.u.] -> [fs]                                             2.41888432650478E-02
 [a.u.] -> [J]                                              4.35974393937059E-18
 [a.u.] -> [N]                                              8.23872205491840E-08
 [a.u.] -> [K]                                              3.15774647902944E+05
 [a.u.] -> [kJ/mol]                                         2.62549961709828E+03
 [a.u.] -> [kcal/mol]                                       6.27509468713739E+02
 [a.u.] -> [Pa]                                             2.94210107994716E+13
 [a.u.] -> [bar]                                            2.94210107994716E+08
 [a.u.] -> [atm]                                            2.90362800883016E+08
 [a.u.] -> [eV]                                             2.72113838565563E+01
 [a.u.] -> [Hz]                                             6.57968392072181E+15
 [a.u.] -> [1/cm] (wave numbers)                            2.19474631370540E+05
 [a.u./Bohr**2] -> [1/cm]                                   5.14048714338585E+03
 

 CELL_TOP| Volume [angstrom^3]:                                      1839.166147
 CELL_TOP| Vector a [angstrom    12.252     0.000     0.000   |a| =    12.252000
 CELL_TOP| Vector b [angstrom     0.000    12.252     0.000   |b| =    12.252000
 CELL_TOP| Vector c [angstrom     0.000     0.000    12.252   |c| =    12.252000
 CELL_TOP| Angle (b,c), alpha [degree]:                                90.000000
 CELL_TOP| Angle (a,c), beta  [degree]:                                90.000000
 CELL_TOP| Angle (a,b), gamma [degree]:                                90.000000
 CELL_TOP| Numerically orthorhombic:                                         YES

 GENERATE|  Preliminary Number of Bonds generated:                             0
 GENERATE|  Achieved consistency in connectivity generation.

 CELL| Volume [angstrom^3]:                                          1839.166147
 CELL| Vector a [angstrom]:      12.252     0.000     0.000   |a| =    12.252000
 CELL| Vector b [angstrom]:       0.000    12.252     0.000   |b| =    12.252000
 CELL| Vector c [angstrom]:       0.000     0.000    12.252   |c| =    12.252000
 CELL| Angle (b,c), alpha [degree]:                                    90.000000
 CELL| Angle (a,c), beta  [degree]:                                    90.000000
 CELL| Angle (a,b), gamma [degree]:                                    90.000000
 CELL| Numerically orthorhombic:                                             YES

 CELL_REF| Volume [angstrom^3]:                                      1839.166147
 CELL_REF| Vector a [angstrom    12.252     0.000     0.000   |a| =    12.252000
 CELL_REF| Vector b [angstrom     0.000    12.252     0.000   |b| =    12.252000
 CELL_REF| Vector c [angstrom     0.000     0.000    12.252   |c| =    12.252000
 CELL_REF| Angle (b,c), alpha [degree]:                                90.000000
 CELL_REF| Angle (a,c), beta  [degree]:                                90.000000
 CELL_REF| Angle (a,b), gamma [degree]:                                90.000000
 CELL_REF| Numerically orthorhombic:                                         YES

 *******************************************************************************
 *******************************************************************************
 **                                                                           **
 **     #####                         ##              ##                      **
 **    ##   ##            ##          ##              ##                      **
 **   ##     ##                       ##            ######                    **
 **   ##     ##  ##   ##  ##   #####  ##  ##   ####   ##    #####    #####    **
 **   ##     ##  ##   ##  ##  ##      ## ##   ##      ##   ##   ##  ##   ##   **
 **   ##  ## ##  ##   ##  ##  ##      ####     ###    ##   ######   ######    **
 **    ##  ###   ##   ##  ##  ##      ## ##      ##   ##   ##       ##        **
 **     #######   #####   ##   #####  ##  ##  ####    ##    #####   ##        **
 **           ##                                                    ##        **
 **                                                                           **
 **                                                ... make the atoms dance   **
 **                                                                           **
 **            Copyright (C) by CP2K developers group (2000-2021)             **
 **                      J. Chem. Phys. 152, 194103 (2020)                    **
 **                                                                           **
 *******************************************************************************

 DFT| Spin restricted Kohn-Sham (RKS) calculation                            RKS
 DFT| Multiplicity                                                             1
 DFT| Number of spin states                                                    1
 DFT| Charge                                                                   0
 DFT| Self-interaction correction (SIC)                                       NO
 DFT| Cutoffs: density                                              1.000000E-10
 DFT|          gradient                                             1.000000E-10
 DFT|          tau                                                  1.000000E-10
 DFT|          cutoff_smoothing_range                               0.000000E+00
 DFT| XC density smoothing                                                  NONE
 DFT| XC derivatives                                                          PW
 FUNCTIONAL| NO EXCHANGE-CORRELATION FUNCTIONAL USED.

 QS| Method:                                                                GAPW
 QS| Density plane wave grid type                        NON-SPHERICAL FULLSPACE
 QS| Number of grid levels:                                                    4
 QS| Density cutoff [a.u.]:                                                150.0
 QS| Multi grid cutoff [a.u.]: 1) grid level                               150.0
 QS|                           2) grid level                                50.0
 QS|                           3) grid level                                16.7
 QS|                           4) grid level                                 5.6
 QS| Grid level progression factor:                                          3.0
 QS| Relative density cutoff [a.u.]:                                        25.0
 QS| Interaction thresholds: eps_pgf_orb:                                1.0E-16
 QS|                         eps_filter_matrix:                          0.0E+00
 QS|                         eps_core_charge:                            1.0E-14
 QS|                         eps_rho_gspace:                             1.0E-12
 QS|                         eps_rho_rspace:                             1.0E-12
 QS|                         eps_gvg_rspace:                             1.0E-06
 QS|                         eps_ppl:                                    1.0E-02
 QS|                         eps_ppnl:                                   1.0E-08
 QS| GAPW|                   eps_fit:                                    1.0E-04
 QS| GAPW|                   eps_iso:                                    1.0E-12
 QS| GAPW|                   eps_svd:                                    1.0E-08
 QS| GAPW|                   eps_cpc:                                    1.0E-12
 QS| GAPW|   atom-r-grid: quadrature:                                     GC_LOG
 QS| GAPW|      atom-s-grid:  max l :                                          6
 QS| GAPW|      max_l_rho0 :                                                   2


 ATOMIC KIND INFORMATION

  1. Atomic kind: Li                                    Number of atoms:     108

     Orbital Basis Set                                                      OPT2

       Number of orbital shell sets:                                          19
       Number of orbital shells:                                              19
       Number of primitive Cartesian functions:                               22
       Number of Cartesian basis functions:                                   48
       Number of spherical basis functions:                                   43
       Norm type:                                                              2

       Normalised Cartesian orbitals:

                        Set   Shell   Orbital            Exponent    Coefficient

                          1       1    1s             1336.034059     157.497346

                          2       1    1s              444.299817      68.971106

                          3       1    1s              147.797018      30.210600

                          4       1    1s               49.209451      13.241784

                          5       1    1s               16.428957       5.815909

                          6       1    1s                5.529399       2.569914

                          7       1    1s                1.905282       1.155792

                          8       1    1s                0.700259       0.545574

                          9       1    1s                0.299587       0.288604

                         10       1    1s                0.166363       0.185653

                         11       1    1px               1.570911       2.506857
                         11       1    1py               1.570911       2.506857
                         11       1    1pz               1.570911       2.506857

                         12       1    1px               0.748759       0.992813
                         12       1    1py               0.748759       0.992813
                         12       1    1pz               0.748759       0.992813

                         13       1    1px               0.386141       0.433883
                         13       1    1py               0.386141       0.433883
                         13       1    1pz               0.386141       0.433883

                         14       1    1px               0.226205       0.222366
                         14       1    1py               0.226205       0.222366
                         14       1    1pz               0.226205       0.222366

                         15       1    1dx2              0.779208       1.063661
                         15       1    1dxy              0.779208       1.842314
                         15       1    1dxz              0.779208       1.842314
                         15       1    1dy2              0.779208       1.063661
                         15       1    1dyz              0.779208       1.842314
                         15       1    1dz2              0.779208       1.063661

                         16       1    1dx2              0.407899       0.342671
                         16       1    1dxy              0.407899       0.593523
                         16       1    1dxz              0.407899       0.593523
                         16       1    1dy2              0.407899       0.342671
                         16       1    1dyz              0.407899       0.593523
                         16       1    1dz2              0.407899       0.342671

                         17       1    1fx3              0.737063       0.741037
                         17       1    1fx2y             0.737063       1.657009
                         17       1    1fx2z             0.737063       1.657009
                         17       1    1fxy2             0.737063       1.657009
                         17       1    1fxyz             0.737063       2.870024
                         17       1    1fxz2             0.737063       1.657009
                         17       1    1fy3              0.737063       0.741037
                         17       1    1fy2z             0.737063       1.657009
                         17       1    1fyz2             0.737063       1.657009
                         17       1    1fz3              0.737063       0.741037

                         18       1    1s            70681.000000      77.181651
                                                     13594.000000     137.129824
                                                      3100.400000     260.757508

                         19       1    1px              28.500000      10.037838
                                                         6.640000      14.250477
                         19       1    1py              28.500000      10.037838
                                                         6.640000      14.250477
                         19       1    1pz              28.500000      10.037838
                                                         6.640000      14.250477

       Atomic covalent radius [Angstrom]:                                  1.230

       Atomic van der Waals radius [Angstrom]:                             1.820

     The atoms of this atomic kind are PAW atoms (GAPW):
       Hard Gaussian function radius:                                      1.512
       Rho0 radius:                                                        1.512
       Maximum GTO radius used for PAW projector construction:            24.566

     GAPW Soft Basis Set                                               OPT2_soft

       Number of orbital shell sets:                                          19
       Number of orbital shells:                                              19
       Number of primitive Cartesian functions:                               11
       Number of Cartesian basis functions:                                   48
       Number of spherical basis functions:                                   43
       Norm type:                                                              2

       Normalised Cartesian orbitals:

                        Set   Shell   Orbital            Exponent    Coefficient

                          1       1    1s         

                          2       1    1s         

                          3       1    1s         

                          4       1    1s         

                          5       1    1s         

                          6       1    1s         

                          7       1    1s                1.905282       1.155792

                          8       1    1s                0.700259       0.545574

                          9       1    1s                0.299587       0.288604

                         10       1    1s                0.166363       0.185653

                         11       1    1px               1.570911       2.506857
                         11       1    1py               1.570911       2.506857
                         11       1    1pz               1.570911       2.506857

                         12       1    1px               0.748759       0.992813
                         12       1    1py               0.748759       0.992813
                         12       1    1pz               0.748759       0.992813

                         13       1    1px               0.386141       0.433883
                         13       1    1py               0.386141       0.433883
                         13       1    1pz               0.386141       0.433883

                         14       1    1px               0.226205       0.222366
                         14       1    1py               0.226205       0.222366
                         14       1    1pz               0.226205       0.222366

                         15       1    1dx2              0.779208       1.063661
                         15       1    1dxy              0.779208       1.842314
                         15       1    1dxz              0.779208       1.842314
                         15       1    1dy2              0.779208       1.063661
                         15       1    1dyz              0.779208       1.842314
                         15       1    1dz2              0.779208       1.063661

                         16       1    1dx2              0.407899       0.342671
                         16       1    1dxy              0.407899       0.593523
                         16       1    1dxz              0.407899       0.593523
                         16       1    1dy2              0.407899       0.342671
                         16       1    1dyz              0.407899       0.593523
                         16       1    1dz2              0.407899       0.342671

                         17       1    1fx3              0.737063       0.741037
                         17       1    1fx2y             0.737063       1.657009
                         17       1    1fx2z             0.737063       1.657009
                         17       1    1fxy2             0.737063       1.657009
                         17       1    1fxyz             0.737063       2.870024
                         17       1    1fxz2             0.737063       1.657009
                         17       1    1fy3              0.737063       0.741037
                         17       1    1fy2z             0.737063       1.657009
                         17       1    1fyz2             0.737063       1.657009
                         17       1    1fz3              0.737063       0.741037

                         18       1    1s         

                         19       1    1px        
                         19       1    1py        
                         19       1    1pz        

     AE Potential information for                                            ALL

       Description:                                       All-electron potential
                                          Krack, Parrinello, PCCP 2, 2105 (2000)

       Gaussian exponent of the core charge distribution:               3.125000
       Electronic configuration (s p d ...):                           3   0   0

  2. Atomic kind: H                                     Number of atoms:     108

     Orbital Basis Set                                                      OPT2

       Number of orbital shell sets:                                          12
       Number of orbital shells:                                              12
       Number of primitive Cartesian functions:                               14
       Number of Cartesian basis functions:                                   37
       Number of spherical basis functions:                                   32
       Norm type:                                                              2

       Normalised Cartesian orbitals:

                        Set   Shell   Orbital            Exponent    Coefficient

                          1       1    1s               27.463675       8.550255

                          2       1    1s                6.855926       3.019671

                          3       1    1s                1.767997       1.092751

                          4       1    1s                0.511818       0.431268

                          5       1    1s                0.201675       0.214486

                          6       1    1px               2.124086       3.655151
                          6       1    1py               2.124086       3.655151
                          6       1    1pz               2.124086       3.655151

                          7       1    1px               1.073681       1.557881
                          7       1    1py               1.073681       1.557881
                          7       1    1pz               1.073681       1.557881

                          8       1    1px               0.568387       0.703469
                          8       1    1py               0.568387       0.703469
                          8       1    1pz               0.568387       0.703469

                          9       1    1dx2              0.928338       1.445092
                          9       1    1dxy              0.928338       2.502973
                          9       1    1dxz              0.928338       2.502973
                          9       1    1dy2              0.928338       1.445092
                          9       1    1dyz              0.928338       2.502973
                          9       1    1dz2              0.928338       1.445092

                         10       1    1dx2              0.495830       0.482216
                         10       1    1dxy              0.495830       0.835223
                         10       1    1dxz              0.495830       0.835223
                         10       1    1dy2              0.495830       0.482216
                         10       1    1dyz              0.495830       0.835223
                         10       1    1dz2              0.495830       0.482216

                         11       1    1fx3              1.207348       2.249456
                         11       1    1fx2y             1.207348       5.029937
                         11       1    1fx2z             1.207348       5.029937
                         11       1    1fxy2             1.207348       5.029937
                         11       1    1fxyz             1.207348       8.712106
                         11       1    1fxz2             1.207348       5.029937
                         11       1    1fy3              1.207348       2.249456
                         11       1    1fy2z             1.207348       5.029937
                         11       1    1fyz2             1.207348       5.029937
                         11       1    1fz3              1.207348       2.249456

                         12       1    1s             3079.700000       6.291525
                                                       461.520000      11.778577
                                                       105.060000      20.410428

       Atomic covalent radius [Angstrom]:                                  0.320

       Atomic van der Waals radius [Angstrom]:                             1.090

     The atoms of this atomic kind are PAW atoms (GAPW):
       Hard Gaussian function radius:                                      1.200
       Rho0 radius:                                                        1.200
       Maximum GTO radius used for PAW projector construction:            24.566

     GAPW Soft Basis Set                                               OPT2_soft

       Number of orbital shell sets:                                          12
       Number of orbital shells:                                              12
       Number of primitive Cartesian functions:                                9
       Number of Cartesian basis functions:                                   37
       Number of spherical basis functions:                                   32
       Norm type:                                                              2

       Normalised Cartesian orbitals:

                        Set   Shell   Orbital            Exponent    Coefficient

                          1       1    1s         

                          2       1    1s         

                          3       1    1s                1.767997       1.092751

                          4       1    1s                0.511818       0.431268

                          5       1    1s                0.201675       0.214486

                          6       1    1px               2.124086       3.655151
                          6       1    1py               2.124086       3.655151
                          6       1    1pz               2.124086       3.655151

                          7       1    1px               1.073681       1.557881
                          7       1    1py               1.073681       1.557881
                          7       1    1pz               1.073681       1.557881

                          8       1    1px               0.568387       0.703469
                          8       1    1py               0.568387       0.703469
                          8       1    1pz               0.568387       0.703469

                          9       1    1dx2              0.928338       1.445092
                          9       1    1dxy              0.928338       2.502973
                          9       1    1dxz              0.928338       2.502973
                          9       1    1dy2              0.928338       1.445092
                          9       1    1dyz              0.928338       2.502973
                          9       1    1dz2              0.928338       1.445092

                         10       1    1dx2              0.495830       0.482216
                         10       1    1dxy              0.495830       0.835223
                         10       1    1dxz              0.495830       0.835223
                         10       1    1dy2              0.495830       0.482216
                         10       1    1dyz              0.495830       0.835223
                         10       1    1dz2              0.495830       0.482216

                         11       1    1fx3              1.207348       2.249456
                         11       1    1fx2y             1.207348       5.029937
                         11       1    1fx2z             1.207348       5.029937
                         11       1    1fxy2             1.207348       5.029937
                         11       1    1fxyz             1.207348       8.712106
                         11       1    1fxz2             1.207348       5.029937
                         11       1    1fy3              1.207348       2.249456
                         11       1    1fy2z             1.207348       5.029937
                         11       1    1fyz2             1.207348       5.029937
                         11       1    1fz3              1.207348       2.249456

                         12       1    1s         

     AE Potential information for                                            ALL

       Description:                                       All-electron potential
                                          Krack, Parrinello, PCCP 2, 2105 (2000)

       Gaussian exponent of the core charge distribution:              12.500000
       Electronic configuration (s p d ...):                           1   0   0


 MOLECULE KIND INFORMATION


 All atoms are their own molecule, skipping detailed information


 TOTAL NUMBERS AND MAXIMUM NUMBERS

  Total number of            - Atomic kinds:                                   2
                             - Atoms:                                        216
                             - Shell sets:                                  3348
                             - Shells:                                      3348
                             - Primitive Cartesian functions:               3888
                             - Cartesian basis functions:                   9180
                             - Spherical basis functions:                   8100

  Maximum angular momentum of the orbital basis functions:                     3


 MODULE QUICKSTEP:  ATOMIC COORDINATES IN angstrom

  Atom  Kind  Element       X           Y           Z          Z(eff)       Mass

       1     1 Li   3    0.000000    0.000000    0.000000      3.0000       6.9410
       2     1 Li   3    2.042000    2.042000    0.000000      3.0000       6.9410
       3     1 Li   3    2.042000    0.000000    2.042000      3.0000       6.9410
       4     1 Li   3    0.000000    2.042000    2.042000      3.0000       6.9410
       5     2 H    1    0.000000    2.042000    0.000000      1.0000       1.0079
       6     2 H    1    0.000000    0.000000    2.042000      1.0000       1.0079
       7     2 H    1    2.042000    0.000000    0.000000      1.0000       1.0079
       8     2 H    1    2.042000    2.042000    2.042000      1.0000       1.0079
       9     1 Li   3    0.000000    0.000000    4.084000      3.0000       6.9410
      10     1 Li   3    2.042000    2.042000    4.084000      3.0000       6.9410
      11     1 Li   3    2.042000    0.000000    6.126000      3.0000       6.9410
      12     1 Li   3    0.000000    2.042000    6.126000      3.0000       6.9410
      13     2 H    1    0.000000    2.042000    4.084000      1.0000       1.0079
      14     2 H    1    0.000000    0.000000    6.126000      1.0000       1.0079
      15     2 H    1    2.042000    0.000000    4.084000      1.0000       1.0079
      16     2 H    1    2.042000    2.042000    6.126000      1.0000       1.0079
      17     1 Li   3    0.000000    0.000000    8.168000      3.0000       6.9410
      18     1 Li   3    2.042000    2.042000    8.168000      3.0000       6.9410
      19     1 Li   3    2.042000    0.000000   10.210000      3.0000       6.9410
      20     1 Li   3    0.000000    2.042000   10.210000      3.0000       6.9410
      21     2 H    1    0.000000    2.042000    8.168000      1.0000       1.0079
      22     2 H    1    0.000000    0.000000   10.210000      1.0000       1.0079
      23     2 H    1    2.042000    0.000000    8.168000      1.0000       1.0079
      24     2 H    1    2.042000    2.042000   10.210000      1.0000       1.0079
      25     1 Li   3    0.000000    4.084000    0.000000      3.0000       6.9410
      26     1 Li   3    2.042000    6.126000    0.000000      3.0000       6.9410
      27     1 Li   3    2.042000    4.084000    2.042000      3.0000       6.9410
      28     1 Li   3    0.000000    6.126000    2.042000      3.0000       6.9410
      29     2 H    1    0.000000    6.126000    0.000000      1.0000       1.0079
      30     2 H    1    0.000000    4.084000    2.042000      1.0000       1.0079
      31     2 H    1    2.042000    4.084000    0.000000      1.0000       1.0079
      32     2 H    1    2.042000    6.126000    2.042000      1.0000       1.0079
      33     1 Li   3    0.000000    4.084000    4.084000      3.0000       6.9410
      34     1 Li   3    2.042000    6.126000    4.084000      3.0000       6.9410
      35     1 Li   3    2.042000    4.084000    6.126000      3.0000       6.9410
      36     1 Li   3    0.000000    6.126000    6.126000      3.0000       6.9410
      37     2 H    1    0.000000    6.126000    4.084000      1.0000       1.0079
      38     2 H    1    0.000000    4.084000    6.126000      1.0000       1.0079
      39     2 H    1    2.042000    4.084000    4.084000      1.0000       1.0079
      40     2 H    1    2.042000    6.126000    6.126000      1.0000       1.0079
      41     1 Li   3    0.000000    4.084000    8.168000      3.0000       6.9410
      42     1 Li   3    2.042000    6.126000    8.168000      3.0000       6.9410
      43     1 Li   3    2.042000    4.084000   10.210000      3.0000       6.9410
      44     1 Li   3    0.000000    6.126000   10.210000      3.0000       6.9410
      45     2 H    1    0.000000    6.126000    8.168000      1.0000       1.0079
      46     2 H    1    0.000000    4.084000   10.210000      1.0000       1.0079
      47     2 H    1    2.042000    4.084000    8.168000      1.0000       1.0079
      48     2 H    1    2.042000    6.126000   10.210000      1.0000       1.0079
      49     1 Li   3    0.000000    8.168000    0.000000      3.0000       6.9410
      50     1 Li   3    2.042000   10.210000    0.000000      3.0000       6.9410
      51     1 Li   3    2.042000    8.168000    2.042000      3.0000       6.9410
      52     1 Li   3    0.000000   10.210000    2.042000      3.0000       6.9410
      53     2 H    1    0.000000   10.210000    0.000000      1.0000       1.0079
      54     2 H    1    0.000000    8.168000    2.042000      1.0000       1.0079
      55     2 H    1    2.042000    8.168000    0.000000      1.0000       1.0079
      56     2 H    1    2.042000   10.210000    2.042000      1.0000       1.0079
      57     1 Li   3    0.000000    8.168000    4.084000      3.0000       6.9410
      58     1 Li   3    2.042000   10.210000    4.084000      3.0000       6.9410
      59     1 Li   3    2.042000    8.168000    6.126000      3.0000       6.9410
      60     1 Li   3    0.000000   10.210000    6.126000      3.0000       6.9410
      61     2 H    1    0.000000   10.210000    4.084000      1.0000       1.0079
      62     2 H    1    0.000000    8.168000    6.126000      1.0000       1.0079
      63     2 H    1    2.042000    8.168000    4.084000      1.0000       1.0079
      64     2 H    1    2.042000   10.210000    6.126000      1.0000       1.0079
      65     1 Li   3    0.000000    8.168000    8.168000      3.0000       6.9410
      66     1 Li   3    2.042000   10.210000    8.168000      3.0000       6.9410
      67     1 Li   3    2.042000    8.168000   10.210000      3.0000       6.9410
      68     1 Li   3    0.000000   10.210000   10.210000      3.0000       6.9410
      69     2 H    1    0.000000   10.210000    8.168000      1.0000       1.0079
      70     2 H    1    0.000000    8.168000   10.210000      1.0000       1.0079
      71     2 H    1    2.042000    8.168000    8.168000      1.0000       1.0079
      72     2 H    1    2.042000   10.210000   10.210000      1.0000       1.0079
      73     1 Li   3    4.084000    0.000000    0.000000      3.0000       6.9410
      74     1 Li   3    6.126000    2.042000    0.000000      3.0000       6.9410
      75     1 Li   3    6.126000    0.000000    2.042000      3.0000       6.9410
      76     1 Li   3    4.084000    2.042000    2.042000      3.0000       6.9410
      77     2 H    1    4.084000    2.042000    0.000000      1.0000       1.0079
      78     2 H    1    4.084000    0.000000    2.042000      1.0000       1.0079
      79     2 H    1    6.126000    0.000000    0.000000      1.0000       1.0079
      80     2 H    1    6.126000    2.042000    2.042000      1.0000       1.0079
      81     1 Li   3    4.084000    0.000000    4.084000      3.0000       6.9410
      82     1 Li   3    6.126000    2.042000    4.084000      3.0000       6.9410
      83     1 Li   3    6.126000    0.000000    6.126000      3.0000       6.9410
      84     1 Li   3    4.084000    2.042000    6.126000      3.0000       6.9410
      85     2 H    1    4.084000    2.042000    4.084000      1.0000       1.0079
      86     2 H    1    4.084000    0.000000    6.126000      1.0000       1.0079
      87     2 H    1    6.126000    0.000000    4.084000      1.0000       1.0079
      88     2 H    1    6.126000    2.042000    6.126000      1.0000       1.0079
      89     1 Li   3    4.084000    0.000000    8.168000      3.0000       6.9410
      90     1 Li   3    6.126000    2.042000    8.168000      3.0000       6.9410
      91     1 Li   3    6.126000    0.000000   10.210000      3.0000       6.9410
      92     1 Li   3    4.084000    2.042000   10.210000      3.0000       6.9410
      93     2 H    1    4.084000    2.042000    8.168000      1.0000       1.0079
      94     2 H    1    4.084000    0.000000   10.210000      1.0000       1.0079
      95     2 H    1    6.126000    0.000000    8.168000      1.0000       1.0079
      96     2 H    1    6.126000    2.042000   10.210000      1.0000       1.0079
      97     1 Li   3    4.084000    4.084000    0.000000      3.0000       6.9410
      98     1 Li   3    6.126000    6.126000    0.000000      3.0000       6.9410
      99     1 Li   3    6.126000    4.084000    2.042000      3.0000       6.9410
     100     1 Li   3    4.084000    6.126000    2.042000      3.0000       6.9410
     101     2 H    1    4.084000    6.126000    0.000000      1.0000       1.0079
     102     2 H    1    4.084000    4.084000    2.042000      1.0000       1.0079
     103     2 H    1    6.126000    4.084000    0.000000      1.0000       1.0079
     104     2 H    1    6.126000    6.126000    2.042000      1.0000       1.0079
     105     1 Li   3    4.084000    4.084000    4.084000      3.0000       6.9410
     106     1 Li   3    6.126000    6.126000    4.084000      3.0000       6.9410
     107     1 Li   3    6.126000    4.084000    6.126000      3.0000       6.9410
     108     1 Li   3    4.084000    6.126000    6.126000      3.0000       6.9410
     109     2 H    1    4.084000    6.126000    4.084000      1.0000       1.0079
     110     2 H    1    4.084000    4.084000    6.126000      1.0000       1.0079
     111     2 H    1    6.126000    4.084000    4.084000      1.0000       1.0079
     112     2 H    1    6.126000    6.126000    6.126000      1.0000       1.0079
     113     1 Li   3    4.084000    4.084000    8.168000      3.0000       6.9410
     114     1 Li   3    6.126000    6.126000    8.168000      3.0000       6.9410
     115     1 Li   3    6.126000    4.084000   10.210000      3.0000       6.9410
     116     1 Li   3    4.084000    6.126000   10.210000      3.0000       6.9410
     117     2 H    1    4.084000    6.126000    8.168000      1.0000       1.0079
     118     2 H    1    4.084000    4.084000   10.210000      1.0000       1.0079
     119     2 H    1    6.126000    4.084000    8.168000      1.0000       1.0079
     120     2 H    1    6.126000    6.126000   10.210000      1.0000       1.0079
     121     1 Li   3    4.084000    8.168000    0.000000      3.0000       6.9410
     122     1 Li   3    6.126000   10.210000    0.000000      3.0000       6.9410
     123     1 Li   3    6.126000    8.168000    2.042000      3.0000       6.9410
     124     1 Li   3    4.084000   10.210000    2.042000      3.0000       6.9410
     125     2 H    1    4.084000   10.210000    0.000000      1.0000       1.0079
     126     2 H    1    4.084000    8.168000    2.042000      1.0000       1.0079
     127     2 H    1    6.126000    8.168000    0.000000      1.0000       1.0079
     128     2 H    1    6.126000   10.210000    2.042000      1.0000       1.0079
     129     1 Li   3    4.084000    8.168000    4.084000      3.0000       6.9410
     130     1 Li   3    6.126000   10.210000    4.084000      3.0000       6.9410
     131     1 Li   3    6.126000    8.168000    6.126000      3.0000       6.9410
     132     1 Li   3    4.084000   10.210000    6.126000      3.0000       6.9410
     133     2 H    1    4.084000   10.210000    4.084000      1.0000       1.0079
     134     2 H    1    4.084000    8.168000    6.126000      1.0000       1.0079
     135     2 H    1    6.126000    8.168000    4.084000      1.0000       1.0079
     136     2 H    1    6.126000   10.210000    6.126000      1.0000       1.0079
     137     1 Li   3    4.084000    8.168000    8.168000      3.0000       6.9410
     138     1 Li   3    6.126000   10.210000    8.168000      3.0000       6.9410
     139     1 Li   3    6.126000    8.168000   10.210000      3.0000       6.9410
     140     1 Li   3    4.084000   10.210000   10.210000      3.0000       6.9410
     141     2 H    1    4.084000   10.210000    8.168000      1.0000       1.0079
     142     2 H    1    4.084000    8.168000   10.210000      1.0000       1.0079
     143     2 H    1    6.126000    8.168000    8.168000      1.0000       1.0079
     144     2 H    1    6.126000   10.210000   10.210000      1.0000       1.0079
     145     1 Li   3    8.168000    0.000000    0.000000      3.0000       6.9410
     146     1 Li   3   10.210000    2.042000    0.000000      3.0000       6.9410
     147     1 Li   3   10.210000    0.000000    2.042000      3.0000       6.9410
     148     1 Li   3    8.168000    2.042000    2.042000      3.0000       6.9410
     149     2 H    1    8.168000    2.042000    0.000000      1.0000       1.0079
     150     2 H    1    8.168000    0.000000    2.042000      1.0000       1.0079
     151     2 H    1   10.210000    0.000000    0.000000      1.0000       1.0079
     152     2 H    1   10.210000    2.042000    2.042000      1.0000       1.0079
     153     1 Li   3    8.168000    0.000000    4.084000      3.0000       6.9410
     154     1 Li   3   10.210000    2.042000    4.084000      3.0000       6.9410
     155     1 Li   3   10.210000    0.000000    6.126000      3.0000       6.9410
     156     1 Li   3    8.168000    2.042000    6.126000      3.0000       6.9410
     157     2 H    1    8.168000    2.042000    4.084000      1.0000       1.0079
     158     2 H    1    8.168000    0.000000    6.126000      1.0000       1.0079
     159     2 H    1   10.210000    0.000000    4.084000      1.0000       1.0079
     160     2 H    1   10.210000    2.042000    6.126000      1.0000       1.0079
     161     1 Li   3    8.168000    0.000000    8.168000      3.0000       6.9410
     162     1 Li   3   10.210000    2.042000    8.168000      3.0000       6.9410
     163     1 Li   3   10.210000    0.000000   10.210000      3.0000       6.9410
     164     1 Li   3    8.168000    2.042000   10.210000      3.0000       6.9410
     165     2 H    1    8.168000    2.042000    8.168000      1.0000       1.0079
     166     2 H    1    8.168000    0.000000   10.210000      1.0000       1.0079
     167     2 H    1   10.210000    0.000000    8.168000      1.0000       1.0079
     168     2 H    1   10.210000    2.042000   10.210000      1.0000       1.0079
     169     1 Li   3    8.168000    4.084000    0.000000      3.0000       6.9410
     170     1 Li   3   10.210000    6.126000    0.000000      3.0000       6.9410
     171     1 Li   3   10.210000    4.084000    2.042000      3.0000       6.9410
     172     1 Li   3    8.168000    6.126000    2.042000      3.0000       6.9410
     173     2 H    1    8.168000    6.126000    0.000000      1.0000       1.0079
     174     2 H    1    8.168000    4.084000    2.042000      1.0000       1.0079
     175     2 H    1   10.210000    4.084000    0.000000      1.0000       1.0079
     176     2 H    1   10.210000    6.126000    2.042000      1.0000       1.0079
     177     1 Li   3    8.168000    4.084000    4.084000      3.0000       6.9410
     178     1 Li   3   10.210000    6.126000    4.084000      3.0000       6.9410
     179     1 Li   3   10.210000    4.084000    6.126000      3.0000       6.9410
     180     1 Li   3    8.168000    6.126000    6.126000      3.0000       6.9410
     181     2 H    1    8.168000    6.126000    4.084000      1.0000       1.0079
     182     2 H    1    8.168000    4.084000    6.126000      1.0000       1.0079
     183     2 H    1   10.210000    4.084000    4.084000      1.0000       1.0079
     184     2 H    1   10.210000    6.126000    6.126000      1.0000       1.0079
     185     1 Li   3    8.168000    4.084000    8.168000      3.0000       6.9410
     186     1 Li   3   10.210000    6.126000    8.168000      3.0000       6.9410
     187     1 Li   3   10.210000    4.084000   10.210000      3.0000       6.9410
     188     1 Li   3    8.168000    6.126000   10.210000      3.0000       6.9410
     189     2 H    1    8.168000    6.126000    8.168000      1.0000       1.0079
     190     2 H    1    8.168000    4.084000   10.210000      1.0000       1.0079
     191     2 H    1   10.210000    4.084000    8.168000      1.0000       1.0079
     192     2 H    1   10.210000    6.126000   10.210000      1.0000       1.0079
     193     1 Li   3    8.168000    8.168000    0.000000      3.0000       6.9410
     194     1 Li   3   10.210000   10.210000    0.000000      3.0000       6.9410
     195     1 Li   3   10.210000    8.168000    2.042000      3.0000       6.9410
     196     1 Li   3    8.168000   10.210000    2.042000      3.0000       6.9410
     197     2 H    1    8.168000   10.210000    0.000000      1.0000       1.0079
     198     2 H    1    8.168000    8.168000    2.042000      1.0000       1.0079
     199     2 H    1   10.210000    8.168000    0.000000      1.0000       1.0079
     200     2 H    1   10.210000   10.210000    2.042000      1.0000       1.0079
     201     1 Li   3    8.168000    8.168000    4.084000      3.0000       6.9410
     202     1 Li   3   10.210000   10.210000    4.084000      3.0000       6.9410
     203     1 Li   3   10.210000    8.168000    6.126000      3.0000       6.9410
     204     1 Li   3    8.168000   10.210000    6.126000      3.0000       6.9410
     205     2 H    1    8.168000   10.210000    4.084000      1.0000       1.0079
     206     2 H    1    8.168000    8.168000    6.126000      1.0000       1.0079
     207     2 H    1   10.210000    8.168000    4.084000      1.0000       1.0079
     208     2 H    1   10.210000   10.210000    6.126000      1.0000       1.0079
     209     1 Li   3    8.168000    8.168000    8.168000      3.0000       6.9410
     210     1 Li   3   10.210000   10.210000    8.168000      3.0000       6.9410
     211     1 Li   3   10.210000    8.168000   10.210000      3.0000       6.9410
     212     1 Li   3    8.168000   10.210000   10.210000      3.0000       6.9410
     213     2 H    1    8.168000   10.210000    8.168000      1.0000       1.0079
     214     2 H    1    8.168000    8.168000   10.210000      1.0000       1.0079
     215     2 H    1   10.210000    8.168000    8.168000      1.0000       1.0079
     216     2 H    1   10.210000   10.210000   10.210000      1.0000       1.0079




 SCF PARAMETERS         Density guess:                                   RESTART
                        --------------------------------------------------------
                        max_scf:                                              20
                        max_scf_history:                                       0
                        max_diis:                                              4
                        --------------------------------------------------------
                        eps_scf:                                        1.00E-06
                        eps_scf_history:                                0.00E+00
                        eps_diis:                                       1.00E-01
                        eps_eigval:                                     1.00E-05
                        --------------------------------------------------------
                        level_shift [a.u.]:                                 0.00
                        --------------------------------------------------------
                        No outer SCF

 PW_GRID| Information for grid number                                          1
 PW_GRID| Grid distributed over                                  1024 processors
 PW_GRID| Real space group dimensions                                    32   32
 PW_GRID| the grid is blocked:                                               YES
 PW_GRID| Cutoff [a.u.]                                                    150.0
 PW_GRID| spherical cutoff:                                                   NO
 PW_GRID|   Bounds   1            -64      63                Points:         128
 PW_GRID|   Bounds   2            -64      63                Points:         128
 PW_GRID|   Bounds   3            -64      63                Points:         128
 PW_GRID| Volume element (a.u.^3)  0.5918E-02     Volume (a.u.^3)     12411.3085
 PW_GRID| Grid span                                                    FULLSPACE
 PW_GRID|   Distribution                         Average         Max         Min
 PW_GRID|   G-Vectors                             2048.0        2048        2048
 PW_GRID|   G-Rays                                  16.0          16          16
 PW_GRID|   Real Space Points                     2048.0        2048        2048

 PW_GRID| Information for grid number                                          2
 PW_GRID| Number of the reference grid                                         1
 PW_GRID| Grid distributed over                                  1024 processors
 PW_GRID| Real space group dimensions                                    32   32
 PW_GRID| the grid is blocked:                                                NO
 PW_GRID| Cutoff [a.u.]                                                     50.0
 PW_GRID| spherical cutoff:                                                   NO
 PW_GRID|   Bounds   1            -37      37                Points:          75
 PW_GRID|   Bounds   2            -37      37                Points:          75
 PW_GRID|   Bounds   3            -37      37                Points:          75
 PW_GRID| Volume element (a.u.^3)  0.2942E-01     Volume (a.u.^3)     12411.3085
 PW_GRID| Grid span                                                    FULLSPACE
 PW_GRID|   Distribution                         Average         Max         Min
 PW_GRID|   G-Vectors                              412.0        1200           0
 PW_GRID|   G-Rays                                   5.5          16           0
 PW_GRID|   Real Space Points                      412.0         675         300

 PW_GRID| Information for grid number                                          3
 PW_GRID| Number of the reference grid                                         1
 PW_GRID| Grid distributed over                                  1024 processors
 PW_GRID| Real space group dimensions                                    32   32
 PW_GRID| the grid is blocked:                                                NO
 PW_GRID| Cutoff [a.u.]                                                     16.7
 PW_GRID| spherical cutoff:                                                   NO
 PW_GRID|   Bounds   1            -22      22                Points:          45
 PW_GRID|   Bounds   2            -22      22                Points:          45
 PW_GRID|   Bounds   3            -22      22                Points:          45
 PW_GRID| Volume element (a.u.^3)  0.1362         Volume (a.u.^3)     12411.3085
 PW_GRID| Grid span                                                    FULLSPACE
 PW_GRID|   Distribution                         Average         Max         Min
 PW_GRID|   G-Vectors                               89.0         720           0
 PW_GRID|   G-Rays                                   2.0          16           0
 PW_GRID|   Real Space Points                       89.0         180          45

 PW_GRID| Information for grid number                                          4
 PW_GRID| Number of the reference grid                                         1
 PW_GRID| Grid distributed over                                  1024 processors
 PW_GRID| Real space group dimensions                                    32   32
 PW_GRID| the grid is blocked:                                                NO
 PW_GRID| Cutoff [a.u.]                                                      5.6
 PW_GRID| spherical cutoff:                                                   NO
 PW_GRID|   Bounds   1            -12      12                Points:          25
 PW_GRID|   Bounds   2            -12      12                Points:          25
 PW_GRID|   Bounds   3            -12      12                Points:          25
 PW_GRID| Volume element (a.u.^3)  0.7943         Volume (a.u.^3)     12411.3085
 PW_GRID| Grid span                                                    FULLSPACE
 PW_GRID|   Distribution                         Average         Max         Min
 PW_GRID|   G-Vectors                               15.3         400           0
 PW_GRID|   G-Rays                                   0.6          16           0
 PW_GRID|   Real Space Points                       15.3          25           0

 POISSON| Solver                                                        PERIODIC
 POISSON| Periodicity                                                        XYZ

 RS_GRID| Information for grid number                                          1
 RS_GRID|   Bounds   1            -64      63                Points:         128
 RS_GRID|   Bounds   2            -64      63                Points:         128
 RS_GRID|   Bounds   3            -64      63                Points:         128
 RS_GRID| Real space distribution over                                  8 groups
 RS_GRID| Real space distribution along direction                              1
 RS_GRID| Border size                                                         25
 RS_GRID| Real space distribution over                                  8 groups
 RS_GRID| Real space distribution along direction                              2
 RS_GRID| Border size                                                         25
 RS_GRID| Real space distribution over                                 16 groups
 RS_GRID| Real space distribution along direction                              3
 RS_GRID| Border size                                                         25
 RS_GRID|   Distribution                         Average         Max         Min
 RS_GRID|   Planes                                  66.0          66          66
 RS_GRID|   Distribution                         Average         Max         Min
 RS_GRID|   Planes                                  66.0          66          66
 RS_GRID|   Distribution                         Average         Max         Min
 RS_GRID|   Planes                                  58.0          58          58

 RS_GRID| Information for grid number                                          2
 RS_GRID|   Bounds   1            -37      37                Points:          75
 RS_GRID|   Bounds   2            -37      37                Points:          75
 RS_GRID|   Bounds   3            -37      37                Points:          75
 RS_GRID| Real space distribution over                                  8 groups
 RS_GRID| Real space distribution along direction                              1
 RS_GRID| Border size                                                         25
 RS_GRID| Real space distribution over                                  8 groups
 RS_GRID| Real space distribution along direction                              2
 RS_GRID| Border size                                                         25
 RS_GRID| Real space distribution over                                 16 groups
 RS_GRID| Real space distribution along direction                              3
 RS_GRID| Border size                                                         25
 RS_GRID|   Distribution                         Average         Max         Min
 RS_GRID|   Planes                                  59.4          60          59
 RS_GRID|   Distribution                         Average         Max         Min
 RS_GRID|   Planes                                  59.4          60          59
 RS_GRID|   Distribution                         Average         Max         Min
 RS_GRID|   Planes                                  54.7          55          54

 RS_GRID| Information for grid number                                          3
 RS_GRID|   Bounds   1            -22      22                Points:          45
 RS_GRID|   Bounds   2            -22      22                Points:          45
 RS_GRID|   Bounds   3            -22      22                Points:          45
 RS_GRID| Real space fully replicated
 RS_GRID| Group size                                                           1

 RS_GRID| Information for grid number                                          4
 RS_GRID|   Bounds   1            -12      12                Points:          25
 RS_GRID|   Bounds   2            -12      12                Points:          25
 RS_GRID|   Bounds   3            -12      12                Points:          25
 RS_GRID| Real space fully replicated
 RS_GRID| Group size                                                           1

  HFX_INFO| Replica ID:                                                        1
  HFX_INFO| FRACTION:                                               1.0000000000
  HFX_INFO| Interaction Potential:                                     TRUNCATED
  HFX_INFO| Cutoff Radius [angstrom]:                               6.0000000000
  HFX_INFO| EPS_SCHWARZ:                                                 1.0E-09
  HFX_INFO| EPS_SCHWARZ_FORCES                                           1.0E-09
  HFX_INFO| EPS_STORAGE_SCALING:                                         1.0E-01
  HFX_INFO| NBINS:                                                            64
  HFX_INFO| BLOCK_SIZE:                                                        1
  HFX_INFO| NUMBER_OF_SHELLS:                                               AUTO
  HFX_INFO| Number of periodic shells considered:                             -1
  HFX_INFO| Number of periodic cells considered:                              27


 Number of electrons:                                                        432
 Number of occupied orbitals:                                                216
 Number of molecular orbitals:                                               216

 Number of orbital functions:                                               8100
 Number of independent orbital functions:                                   8100

 Extrapolation method: initial_guess


 SCF WAVEFUNCTION OPTIMIZATION

  ----------------------------------- OT ---------------------------------------
  Minimizer      : CG                  : conjugate gradient
  Preconditioner : FULL_ALL            : diagonalization, state selective
  Precond_solver : DEFAULT
  Line search    : 2PNT                : 2 energies, one gradient
  stepsize       :    0.15000000                  energy_gap     :    0.08000000
  eps_taylor     :   0.10000E-15                  max_taylor     :             4
  ----------------------------------- OT ---------------------------------------

  Step     Update method      Time    Convergence         Total energy    Change
  ------------------------------------------------------------------------------

  HFX_MEM_INFO| Est. max. program size before HFX [MiB]:                     339
  HFX_MEM_INFO| Number of cart. primitive ERI's calculated:       18728082069295
  HFX_MEM_INFO| Number of sph. ERI's calculated:                   4747425803902
  HFX_MEM_INFO| Number of sph. ERI's stored in-core:               3559832631419
  HFX_MEM_INFO| Number of sph. ERI's stored on disk:                           0
  HFX_MEM_INFO| Number of sph. ERI's calculated on the fly:                    0
  HFX_MEM_INFO| Total memory consumption ERI's RAM [MiB]:                3893120
  HFX_MEM_INFO| Whereof max-vals [MiB]:                                    61078
  HFX_MEM_INFO| Total compression factor ERI's RAM:                         6.98
  HFX_MEM_INFO| Total memory consumption ERI's disk [MiB]:                     0
  HFX_MEM_INFO| Total compression factor ERI's disk:                        0.00
  HFX_MEM_INFO| Size of density/Fock matrix [MiB]:                           502
  HFX_MEM_INFO| Size of buffers [MiB]:                                        66
  HFX_MEM_INFO| Number of periodic image cells considered:                    27
  HFX_MEM_INFO| Est. max. program size after HFX  [MiB]:                    5059

     1 OT CG       0.15E+00  251.8     0.03481636      -870.3838135131 -8.70E+02
     2 OT LS       0.15E-02   13.2                   203832.4124064351
     3 OT CG       0.15E-02   12.3   132.99042021      1614.1995508067  2.48E+03
     4 OT LS       0.74E-03   12.1                   687552.9139796427
     5 OT CG       0.74E-03   12.3   991.62678466    607353.8590417884  6.06E+05
     6 OT LS       0.37E-03   12.1                   661449.3044891792
     7 OT CG       0.37E-03   12.3   984.66004623    617995.6296831550  1.06E+04
     8 OT LS       0.18E-03   12.1                   647511.5196392129
     9 OT CG       0.18E-03   12.3   994.78992371    524114.5014526714 -9.39E+04
    10 OT LS       0.92E-04   12.1                   668119.4150729697
    11 OT CG       0.92E-04   12.2  1046.76288991    609170.1872916635  8.51E+04
    12 OT LS       0.46E-04   12.1                   551243.3310940426
    13 OT CG       0.46E-04   12.2   972.06412303    627009.6869497970  1.78E+04
    14 OT LS       0.23E-04   12.1                   592763.6318842407
    15 OT CG       0.23E-04   12.2  1025.35842396    587360.3247676985 -3.96E+04
    16 OT LS       0.12E-04   12.1                   582452.5584813957
    17 OT CG       0.12E-04   12.2   954.88209201    692884.9761964499  1.06E+05
    18 OT LS       0.58E-05   12.1                   574158.7879958174
    19 OT CG       0.58E-05   12.2   998.10785345    623264.9785122022 -6.96E+04
    20 OT LS       0.29E-05   12.1                   588313.8946513069

  Leaving inner SCF loop after reaching    20 steps.


  Electronic density on regular grids:       -346.0292458220       85.9707541780
  Core density on regular grids:              432.0000000000       -0.0000000000
  Hard and soft densities (Lebedev):         -836.4417728520     -750.6864937491
  Total Rho_soft + Rho1_hard - Rho1_soft     -431.7845249248
  Total charge density (r-space):               0.2154750752
  Total Rho_soft + Rho0_soft (g-space):         0.1763077640

  Overlap energy of the core charge distribution:               0.00000000000000
  Self energy of the core charge distribution:               -837.82153156841810
  Core Hamiltonian energy:                                 588362.54336519236676
  Hartree energy:                                             406.14941864974355
  Exchange-correlation energy:                                  0.00000000000000
  Hartree-Fock Exchange energy:                              -370.90335845385539

  GAPW| Exc from hard and soft atomic rho1:                     0.00000000000000
  GAPW| local Eh = 1 center integrals:                        753.92675748708280

  Total energy:                                            588313.89465130690951

 *** WARNING in qs_scf.F:576 :: SCF run NOT converged ***


 !-----------------------------------------------------------------------------!
                     Mulliken Population Analysis

 #  Atom  Element  Kind  Atomic population                           Net charge
       1     Li       1          2.336838                              0.663162
       2     Li       1          2.113392                              0.886608
       3     Li       1          2.065672                              0.934328
       4     Li       1          2.078817                              0.921183
       5     H        2          0.908054                              0.091946
       6     H        2          1.011534                             -0.011534
       7     H        2          1.022078                             -0.022078
       8     H        2          0.931453                              0.068547
       9     Li       1          2.082933                              0.917067
      10     Li       1          2.026796                              0.973204
      11     Li       1          2.121871                              0.878129
      12     Li       1          2.289153                              0.710847
      13     H        2          0.851767                              0.148233
      14     H        2          0.794783                              0.205217
      15     H        2          0.898863                              0.101137
      16     H        2          0.804791                              0.195209
      17     Li       1          2.591978                              0.408022
      18     Li       1          2.129224                              0.870776
      19     Li       1          2.219008                              0.780992
      20     Li       1          2.234857                              0.765143
      21     H        2          0.911877                              0.088123
      22     H        2          1.270119                             -0.270119
      23     H        2          1.041623                             -0.041623
      24     H        2          0.924613                              0.075387
      25     Li       1          2.248536                              0.751464
      26     Li       1          2.179118                              0.820882
      27     Li       1          1.906947                              1.093053
      28     Li       1          2.187688                              0.812312
      29     H        2          1.073396                             -0.073396
      30     H        2          0.870530                              0.129470
      31     H        2          0.893240                              0.106760
      32     H        2          0.866578                              0.133422
      33     Li       1          2.301039                              0.698961
      34     Li       1          1.941769                              1.058231
      35     Li       1          2.212925                              0.787075
      36     Li       1          2.661255                              0.338745
      37     H        2          1.006063                             -0.006063
      38     H        2          0.811744                              0.188256
      39     H        2          0.861460                              0.138540
      40     H        2          0.930887                              0.069113
      41     Li       1          2.309399                              0.690601
      42     Li       1          2.194810                              0.805190
      43     Li       1          2.311194                              0.688806
      44     Li       1          2.615981                              0.384019
      45     H        2          1.171435                             -0.171435
      46     H        2          0.956565                              0.043435
      47     H        2          1.003441                             -0.003441
      48     H        2          0.947908                              0.052092
      49     Li       1          2.647489                              0.352511
      50     Li       1          2.286487                              0.713513
      51     Li       1          2.174064                              0.825936
      52     Li       1          2.075297                              0.924703
      53     H        2          1.038885                             -0.038885
      54     H        2          0.910598                              0.089402
      55     H        2          0.926288                              0.073712
      56     H        2          0.894724                              0.105276
      57     Li       1          2.190711                              0.809289
      58     Li       1          2.092510                              0.907490
      59     Li       1          2.290900                              0.709100
      60     Li       1          2.568715                              0.431285
      61     H        2          1.096781                             -0.096781
      62     H        2          1.194717                             -0.194717
      63     H        2          0.898776                              0.101224
      64     H        2          0.952685                              0.047315
      65     Li       1          2.966672                              0.033328
      66     Li       1          2.203762                              0.796238
      67     Li       1          2.336850                              0.663150
      68     Li       1          3.057232                             -0.057232
      69     H        2          1.203997                             -0.203997
      70     H        2          1.393902                             -0.393902
      71     H        2          1.214254                             -0.214254
      72     H        2          1.038351                             -0.038351
      73     Li       1          2.247851                              0.752149
      74     Li       1          2.212311                              0.787689
      75     Li       1          2.401304                              0.598696
      76     Li       1          2.080111                              0.919889
      77     H        2          0.964371                              0.035629
      78     H        2          0.879322                              0.120678
      79     H        2          0.843419                              0.156581
      80     H        2          0.984689                              0.015311
      81     Li       1          2.066691                              0.933309
      82     Li       1          2.076544                              0.923456
      83     Li       1          2.154139                              0.845861
      84     Li       1          2.037397                              0.962603
      85     H        2          0.830421                              0.169579
      86     H        2          0.955789                              0.044211
      87     H        2          0.898490                              0.101510
      88     H        2          0.997433                              0.002567
      89     Li       1          2.142636                              0.857364
      90     Li       1          2.183481                              0.816519
      91     Li       1          2.387854                              0.612146
      92     Li       1          2.218803                              0.781197
      93     H        2          0.913139                              0.086861
      94     H        2          1.048460                             -0.048460
      95     H        2          1.013843                             -0.013843
      96     H        2          0.992972                              0.007028
      97     Li       1          2.348875                              0.651125
      98     Li       1          2.080825                              0.919175
      99     Li       1          1.936672                              1.063328
     100     Li       1          2.075621                              0.924379
     101     H        2          0.802206                              0.197794
     102     H        2          0.839455                              0.160545
     103     H        2          0.892079                              0.107921
     104     H        2          0.915832                              0.084168
     105     Li       1          2.267227                              0.732773
     106     Li       1          2.203084                              0.796916
     107     Li       1          2.323552                              0.676448
     108     Li       1          2.165707                              0.834293
     109     H        2          0.980930                              0.019070
     110     H        2          0.962609                              0.037391
     111     H        2          0.900888                              0.099112
     112     H        2          0.895129                              0.104871
     113     Li       1          2.158187                              0.841813
     114     Li       1          2.285392                              0.714608
     115     Li       1          2.114680                              0.885320
     116     Li       1          2.136255                              0.863745
     117     H        2          0.922848                              0.077152
     118     H        2          0.933808                              0.066192
     119     H        2          1.010406                             -0.010406
     120     H        2          1.163007                             -0.163007
     121     Li       1          2.120697                              0.879303
     122     Li       1          2.317536                              0.682464
     123     Li       1          2.523308                              0.476692
     124     Li       1          2.210993                              0.789007
     125     H        2          0.910642                              0.089358
     126     H        2          0.968250                              0.031750
     127     H        2          1.135049                             -0.135049
     128     H        2          0.801646                              0.198354
     129     Li       1          2.246557                              0.753443
     130     Li       1          2.354781                              0.645219
     131     Li       1          2.519871                              0.480129
     132     Li       1          2.131567                              0.868433
     133     H        2          0.918887                              0.081113
     134     H        2          1.054424                             -0.054424
     135     H        2          1.143830                             -0.143830
     136     H        2          0.802755                              0.197245
[...]
 write_symmetry                       1  3.0    0.000    0.001    0.000    0.001
 write_qs_kind_set                    1  3.0    0.000    0.001    0.000    0.001
 topology_coordinate_pack_5           1  4.0    0.000    0.001    0.000    0.001
 copy_dbcsr_to_fm_bc                 32 10.9    0.000    0.001    0.000    0.001
 topology_connectivity_pack_12        1  4.0    0.000    0.001    0.000    0.001
 qs_ot_p2m_taylor                     1  7.0    0.000    0.000    0.000    0.001
 dbcsr_add_on_diag                    2  8.0    0.000    0.000    0.000    0.001
 hfx_create_basis_types               4  3.0    0.000    0.001    0.000    0.001
 topology_connectivity_pack_13        1  4.0    0.000    0.001    0.000    0.001
 cp_dbcsr_alloc_block_from_nbl        5  5.4    0.000    0.000    0.000    0.001
 wfs_update                           1  3.0    0.000    0.001    0.000    0.001
 merge_index                        443 13.0    0.000    0.001    0.000    0.001
 topology_connectivity_pack_1         1  4.0    0.000    0.001    0.000    0.001
 dbcsr_data_copy_aa2                350 12.7    0.000    0.001    0.000    0.001
 create_destination_list              2  9.0    0.000    0.001    0.000    0.001
 create_replicated_row_vec_from      21 10.9    0.000    0.000    0.000    0.001
 write_structure_data                 1  3.0    0.000    0.001    0.000    0.001
 pw_scatter_p                        61 12.5    0.000    0.001    0.000    0.001
 mp_environ_c                       179 12.9    0.000    0.001    0.000    0.001
 dbcsr_scale_by_vector_anytype       60  9.3    0.000    0.000    0.000    0.001
 topology_connectivity_pack_3         1  4.0    0.000    0.001    0.000    0.001
 pw_scale                            10  8.0    0.000    0.001    0.000    0.001
 qs_ks_did_change                    22  5.0    0.000    0.001    0.000    0.001
 metadyn_read                         1  2.0    0.000    0.001    0.000    0.001
 set_mo_occupation_1                 22  6.9    0.000    0.001    0.000    0.001
 pw_pool_create_pw                  378  8.9    0.000    0.001    0.000    0.001
 topology_constraint_pack_1           1  4.0    0.000    0.001    0.000    0.001
 topology_constraint_pack_7           1  4.0    0.000    0.001    0.000    0.001
 grid_create_task_list                1  7.0    0.000    0.001    0.000    0.001
 init_coulomb_local                   1  3.0    0.000    0.001    0.000    0.001
 dbcsr_scale_anytype                 90 12.4    0.000    0.000    0.000    0.001
 ot_readwrite_input                   1  6.0    0.000    0.001    0.000    0.001
 dbcsr_make_dbcsr_index            1419 13.8    0.000    0.000    0.000    0.000
 mp_allgatherv_lv                     1 13.0    0.000    0.000    0.000    0.000
 read_tddfpt2_control                 1  3.0    0.000    0.000    0.000    0.000
 topology_constraint_pack_5           1  4.0    0.000    0.000    0.000    0.000
 transpose_index_local              160 12.0    0.000    0.000    0.000    0.000
 mp_max_r                             1  2.0    0.000    0.000    0.000    0.000
 topology_connectivity_pack_7         1  4.0    0.000    0.000    0.000    0.000
 offload_create_buffer               28  9.2    0.000    0.000    0.000    0.000
 write_adjacency_matrix               1  6.0    0.000    0.000    0.000    0.000
 topology_connectivity_pack_11        1  4.0    0.000    0.000    0.000    0.000
 topology_constraint_pack_3           1  4.0    0.000    0.000    0.000    0.000
 kpoint_initialize                    1  2.0    0.000    0.000    0.000    0.000
 topology_generate_bond_1             1  5.0    0.000    0.000    0.000    0.000
 pw_grid_assign                       4  8.0    0.000    0.000    0.000    0.000
 dbcsr_make_index_local_row         612 11.8    0.000    0.000    0.000    0.000
 dbcsr_index_prune_deleted          536 13.1    0.000    0.000    0.000    0.000
 dbcsr_mm_sched_init                306 13.8    0.000    0.000    0.000    0.000
 pw_grid_sort                         4  8.0    0.000    0.000    0.000    0.000
 topology_connectivity_pack_11_       1  4.0    0.000    0.000    0.000    0.000
 resp_fit                             1  5.0    0.000    0.000    0.000    0.000
 dbcsr_get_data_size_used           484 12.1    0.000    0.000    0.000    0.000
 mp_environ_l                       339  9.9    0.000    0.000    0.000    0.000
 dbcsr_hadamard_product              18 11.0    0.000    0.000    0.000    0.000
 topology_generate_onfo               1  4.0    0.000    0.000    0.000    0.000
 create_replicated_col_vec_from      21 10.9    0.000    0.000    0.000    0.000
 clebsch_gordon_init                  1  4.0    0.000    0.000    0.000    0.000
 fill_hash_tables                   306 13.8    0.000    0.000    0.000    0.000
 rs_grid_create                      26  8.4    0.000    0.000    0.000    0.000
 pw_pool_give_back_pw               369  8.9    0.000    0.000    0.000    0.000
 topology_coordinate_pack_7b          1  4.0    0.000    0.000    0.000    0.000
 dbcsr_scale_d                       21 11.9    0.000    0.000    0.000    0.000
 pw_hfx                              20  9.0    0.000    0.000    0.000    0.000
 mp_min_lv                            4  8.0    0.000    0.000    0.000    0.000
 create_grid_atom                     2  4.0    0.000    0.000    0.000    0.000
 mp_min_i                             6  6.0    0.000    0.000    0.000    0.000
 release_fast_vec_access           1282 13.0    0.000    0.000    0.000    0.000
 cp_fm_to_fm_matrix                   3  6.7    0.000    0.000    0.000    0.000
 mp_sum_r                             1  2.0    0.000    0.000    0.000    0.000
 dbcsr_get_global_row_map           306 10.8    0.000    0.000    0.000    0.000
 build_neighbor_lists_sab_core        1  5.0    0.000    0.000    0.000    0.000
 mp_max_d                             1  1.0    0.000    0.000    0.000    0.000
 sort_shells                          4  9.0    0.000    0.000    0.000    0.000
 dbcsr_copy_into_existing             1  6.0    0.000    0.000    0.000    0.000
 dbcsr_get_global_col_map           306 10.8    0.000    0.000    0.000    0.000
 build_neighbor_lists_sab_all         1  5.0    0.000    0.000    0.000    0.000
 check_generate_mol                   1  6.0    0.000    0.000    0.000    0.000
 allocate_rho_atom_rad                2 10.0    0.000    0.000    0.000    0.000
 atom2d_build                         1  5.0    0.000    0.000    0.000    0.000
 init_lebedev_grids                   1  4.0    0.000    0.000    0.000    0.000
 write_dft_control                    1  3.0    0.000    0.000    0.000    0.000
 dbcsr_mm_hostdrv_init              306 14.8    0.000    0.000    0.000    0.000
 destroy_preconditioner               1  3.0    0.000    0.000    0.000    0.000
 topology_coordinate_pack_11          1  4.0    0.000    0.000    0.000    0.000
 cp_fm_release                      110  9.4    0.000    0.000    0.000    0.000
 mp_max_lv                            4  8.0    0.000    0.000    0.000    0.000
 qs_efield_berry_phase               20  8.0    0.000    0.000    0.000    0.000
 cp_fm_set_all                        1  7.0    0.000    0.000    0.000    0.000
 dbcsr_filter_anytype                22  7.8    0.000    0.000    0.000    0.000
 scf_env_create                       1  3.0    0.000    0.000    0.000    0.000
 write_qs_control                     1  3.0    0.000    0.000    0.000    0.000
 dbcsr_verify_matrix                  1  8.0    0.000    0.000    0.000    0.000
 qs_scf_print_scf_summary             1  5.0    0.000    0.000    0.000    0.000
 pw_poisson_rebuild                  20  9.0    0.000    0.000    0.000    0.000
 topology_connectivity_pack_9         1  4.0    0.000    0.000    0.000    0.000
 sort_neighbor_lists                  1  7.0    0.000    0.000    0.000    0.000
 rho0_s_grid_create                   2  4.0    0.000    0.000    0.000    0.000
 dump_info_core_hamiltonian           1  5.0    0.000    0.000    0.000    0.000
 make_basic_distribution              1  5.0    0.000    0.000    0.000    0.000
 grid_free_task_list                  1  2.0    0.000    0.000    0.000    0.000
 mp_sum_lm3                           1  2.0    0.000    0.000    0.000    0.000
 write_molecule_kind_set              1  3.0    0.000    0.000    0.000    0.000
 qs_scf_post_ps_implicit              1  6.0    0.000    0.000    0.000    0.000
 wfi_extrapolate                      1  5.0    0.000    0.000    0.000    0.000
 topology_connectivity_pack_8         1  4.0    0.000    0.000    0.000    0.000
 external_read_density                1  4.0    0.000    0.000    0.000    0.000
 hfx_release_basis_types              4  2.0    0.000    0.000    0.000    0.000
 mp_min_rv                            1  2.0    0.000    0.000    0.000    0.000
 read_topology_section                1  3.0    0.000    0.000    0.000    0.000
 write_s_matrix_csr                   1  6.0    0.000    0.000    0.000    0.000
 topology_coordinate_pack_89          1  4.0    0.000    0.000    0.000    0.000
 qs_scf_post_transport                1  6.0    0.000    0.000    0.000    0.000
 write_ks_matrix_csr                  1  6.0    0.000    0.000    0.000    0.000
 topology_coordinate_pack_6           1  4.0    0.000    0.000    0.000    0.000
 mp_sum_rv                            1  2.0    0.000    0.000    0.000    0.000
 check_diag                          23 10.7    0.000    0.000    0.000    0.000
 pw_poisson_set                       1  6.0    0.000    0.000    0.000    0.000
 mp_max_rv                            1  2.0    0.000    0.000    0.000    0.000
 transport_current                    1  7.0    0.000    0.000    0.000    0.000
 pw_create                           19  8.2    0.000    0.000    0.000    0.000
 write_gto_basis_sets                 1  3.0    0.000    0.000    0.000    0.000
 write_particle_distances             1  3.0    0.000    0.000    0.000    0.000
 pw_grid_allocate                     4  8.0    0.000    0.000    0.000    0.000
 topology_muc                         1  4.0    0.000    0.000    0.000    0.000
 grid_create_basis_set                2  7.0    0.000    0.000    0.000    0.000
 check_cp2k_input                     1  2.0    0.000    0.000    0.000    0.000
 read_mgrid_section                   1  3.0    0.000    0.000    0.000    0.000
 read_binary_coordinates              1  3.0    0.000    0.000    0.000    0.000
 linres_calculation_low               1  4.0    0.000    0.000    0.000    0.000
 allocate_qs_energy                   1  3.0    0.000    0.000    0.000    0.000
 cp_result_create                     1  2.0    0.000    0.000    0.000    0.000
 calculate_ecore_self                 1  4.0    0.000    0.000    0.000    0.000
 cp_ddapc_init                        1  5.0    0.000    0.000    0.000    0.000
 energy_correction                    1  3.0    0.000    0.000    0.000    0.000
 mp_dims_create                       4  9.0    0.000    0.000    0.000    0.000
 qs_scf_post_molopt                   1  4.0    0.000    0.000    0.000    0.000
 qs_scf_post_xray                     1  4.0    0.000    0.000    0.000    0.000
 ec_env_release                       1  2.0    0.000    0.000    0.000    0.000
 tddfpt2_control_release              1  2.0    0.000    0.000    0.000    0.000
 qs_scf_post_elf                      1  4.0    0.000    0.000    0.000    0.000
 qs_scf_post_efg                      1  4.0    0.000    0.000    0.000    0.000
 qs_scf_post_epr                      1  4.0    0.000    0.000    0.000    0.000
 qs_scf_post_moments                  1  4.0    0.000    0.000    0.000    0.000
 write_mos_molden                     1  6.0    0.000    0.000    0.000    0.000
 qs_scf_post_local_stress             1  6.0    0.000    0.000    0.000    0.000
 qs_scf_post_local_energy             1  6.0    0.000    0.000    0.000    0.000
 add_external_potential               1  2.0    0.000    0.000    0.000    0.000
 rescale_forces                       1  2.0    0.000    0.000    0.000    0.000
 grid_free_basis_set                  2  2.0    0.000    0.000    0.000    0.000
 qs_energies_compute_matrix_w         1  3.0    0.000    0.000    0.000    0.000
 rs_grid_reorder_ranks                1  8.0    0.000    0.000    0.000    0.000
 write_dm_binary_restart              1  6.0    0.000    0.000    0.000    0.000
 topology_generate_molecule_PAR       1  5.0    0.000    0.000    0.000    0.000
 wfn_mix                              1  4.0    0.000    0.000    0.000    0.000
 handle_ext_restart                   1  3.0    0.000    0.000    0.000    0.000
 topology_coordinate_pack_3           1  4.0    0.000    0.000    0.000    0.000
 calculate_ecore_efield               1  4.0    0.000    0.000    0.000    0.000
 wfi_create                           1  3.0    0.000    0.000    0.000    0.000
 wannier90_interface                  1  4.0    0.000    0.000    0.000    0.000
 scf_env_cleanup                      1  3.0    0.000    0.000    0.000    0.000
 topology_connectivity_pack_12_       1  4.0    0.000    0.000    0.000    0.000
 qs_scf_post_et                       1  4.0    0.000    0.000    0.000    0.000
 topology_connectivity_pack_1.1       1  4.0    0.000    0.000    0.000    0.000
 topology_connectivity_pack_13_       1  4.0    0.000    0.000    0.000    0.000
 check_qs_kind_set                    1  3.0    0.000    0.000    0.000    0.000
 external_e_potential                 1  4.0    0.000    0.000    0.000    0.000
 tddfpt2_control_create               1  3.0    0.000    0.000    0.000    0.000
 atom2d_cleanup                       1  5.0    0.000    0.000    0.000    0.000
 fp_env_release                       3  2.0    0.000    0.000    0.000    0.000
 topology_generate_bend               1  4.0    0.000    0.000    0.000    0.000
 fp_env_read                          1  2.0    0.000    0.000    0.000    0.000
 topology_coordinate_pack_4           1  4.0    0.000    0.000    0.000    0.000
 topology_connectivity_pack_14_       1  4.0    0.000    0.000    0.000    0.000
 cp_result_release                    1  2.0    0.000    0.000    0.000    0.000
 topology_constraint_pack_6           1  4.0    0.000    0.000    0.000    0.000
 topology_coordinate_pack_2           1  4.0    0.000    0.000    0.000    0.000
 topology_constraint_pack_2           1  4.0    0.000    0.000    0.000    0.000
 topology_generate_ub                 1  4.0    0.000    0.000    0.000    0.000
 ps_implicit_release                  1  2.0    0.000    0.000    0.000    0.000
 topology_constraint_pack_4           1  4.0    0.000    0.000    0.000    0.000
 pw_env_create                        1  5.0    0.000    0.000    0.000    0.000
 topology_generate_impr               1  4.0    0.000    0.000    0.000    0.000
 fp_env_create                        1  2.0    0.000    0.000    0.000    0.000
 ewald_pw_release                     1  2.0    0.000    0.000    0.000    0.000
 scf_env_retain                       1  3.0    0.000    0.000    0.000    0.000
 clebsch_gordon_deallocate            1  4.0    0.000    0.000    0.000    0.000
 topology_coordinate_pack_10          1  4.0    0.000    0.000    0.000    0.000
 topology_generate_bond_7             1  5.0    0.000    0.000    0.000    0.000
 fp_env_write                         1  2.0    0.000    0.000    0.000    0.000
 topology_generate_dihe               1  4.0    0.000    0.000    0.000    0.000
 wfi_set_history_variables            1  6.0    0.000    0.000    0.000    0.000
 -------------------------------------------------------------------------------

 The number of warnings for this run is : 1
 
 -------------------------------------------------------------------------------
  **** **** ******  **  PROGRAM ENDED AT                 2022-03-23 15:29:38.939
 ***** ** ***  *** **   PROGRAM RAN ON                                 nid004968
 **    ****   ******    PROGRAM RAN BY                                   aturner
 ***** **    ** ** **   PROGRAM PROCESS ID                                136222
  **** **  *******  **  PROGRAM STOPPED IN /mnt/lustre/a2fs-work2/work/z19/z19/a
                                           turner/benchmark/ofi-vs-ucx/CP2K/LiH_
                                           HFX/calc/UCX

#################################################################
#                                                               #
#            CrayPat-lite Performance Statistics                #
#                                                               #
#################################################################

CrayPat/X:  Version 21.02.0 Revision ee5549f05  01/13/21 04:13:58
Experiment:                   lite  lite-samples      
Number of PEs (MPI ranks):   1,024
Numbers of PEs per Node:        32  PEs on each of       32  Nodes
Numbers of Threads per PE:      16  threads on each of   28  PEs
                                17  threads on each of    4  PEs
                                20  threads on each of  485  PEs
                                21  threads on each of   10  PEs
                                22  threads on each of   24  PEs
                                23  threads on each of   30  PEs
                                24  threads on each of  323  PEs
                                25  threads on each of   84  PEs
                                45  threads on each of    4  PEs
                               565  threads on            1  PE
                               570  threads on            1  PE
                               578  threads on            1  PE
                               586  threads on            1  PE
                               592  threads on            1  PE
                               598  threads on            1  PE
                               603  threads on            1  PE
                               609  threads on            1  PE
                               615  threads on            1  PE
                               621  threads on            1  PE
                               627  threads on            1  PE
                               633  threads on            1  PE
                               639  threads on            1  PE
                               645  threads on            1  PE
                               651  threads on            1  PE
                               657  threads on            1  PE
                               663  threads on            1  PE
                               669  threads on            1  PE
                               675  threads on            1  PE
                               681  threads on            1  PE
                               687  threads on            1  PE
                               693  threads on            1  PE
                               699  threads on            1  PE
                               705  threads on            1  PE
                               711  threads on            1  PE
                               717  threads on            1  PE
                               723  threads on            1  PE
                               729  threads on            1  PE
                               735  threads on            1  PE
                               741  threads on            1  PE
                               747  threads on            1  PE
                             1,007  threads on            1  PE
Number of Cores per Socket:     64
Execution start time:  Wed Mar 23 15:21:27 2022
System name and speed:  nid004968  2.250 GHz (nominal)
AMD   Rome                 CPU  Family: 23  Model: 49  Stepping:  0
Core Performance Boost:  43047 PEs have CPB capability



Avg Process Time:      491.72 secs                
High Memory:      2,729,263.0 MiBytes     2,665.3 MiBytes per PE
I/O Read Rate:      24.281310 MiBytes/sec         
I/O Write Rate:    104.094498 MiBytes/sec         
